 Entering Gaussian System, Link 0=/work/home/achvfzi98e/apprepo/gaussian/16-hy/app/g16/g16
 Input=NiIILn2.gjf
 Output=NiIILn2.log
 Initial command:
 /work/home/achvfzi98e/apprepo/gaussian/16-hy/scripts/../app/g16/l1.exe "/work/home/achvfzi98e/apprepo/gaussian/16-hy/scripts/../app/g16/scratch/Gau-48341.inp" -scrdir="/work/home/achvfzi98e/apprepo/gaussian/16-hy/scripts/../app/g16/scratch/"
 Entering Link 1 = /work/home/achvfzi98e/apprepo/gaussian/16-hy/scripts/../app/g16/l1.exe PID=     48342.
  
 Copyright (c) 1988,1990,1992,1993,1995,1998,2003,2009,2016,
            Gaussian, Inc.  All Rights Reserved.
  
 This is part of the Gaussian(R) 16 program.  It is based on
 the Gaussian(R) 09 system (copyright 2009, Gaussian, Inc.),
 the Gaussian(R) 03 system (copyright 2003, Gaussian, Inc.),
 the Gaussian(R) 98 system (copyright 1998, Gaussian, Inc.),
 the Gaussian(R) 94 system (copyright 1995, Gaussian, Inc.),
 the Gaussian 92(TM) system (copyright 1992, Gaussian, Inc.),
 the Gaussian 90(TM) system (copyright 1990, Gaussian, Inc.),
 the Gaussian 88(TM) system (copyright 1988, Gaussian, Inc.),
 the Gaussian 86(TM) system (copyright 1986, Carnegie Mellon
 University), and the Gaussian 82(TM) system (copyright 1983,
 Carnegie Mellon University). Gaussian is a federally registered
 trademark of Gaussian, Inc.
  
 This software contains proprietary and confidential information,
 including trade secrets, belonging to Gaussian, Inc.
  
 This software is provided under written license and may be
 used, copied, transmitted, or stored only in accord with that
 written license.
  
 The following legend is applicable only to US Government
 contracts under FAR:
  
                    RESTRICTED RIGHTS LEGEND
  
 Use, reproduction and disclosure by the US Government is
 subject to restrictions as set forth in subparagraphs (a)
 and (c) of the Commercial Computer Software - Restricted
 Rights clause in FAR 52.227-19.
  
 Gaussian, Inc.
 340 Quinnipiac St., Bldg. 40, Wallingford CT 06492
  
  
 ---------------------------------------------------------------
 Warning -- This program may not be used in any manner that
 competes with the business of Gaussian, Inc. or will provide
 assistance to any competitor of Gaussian, Inc.  The licensee
 of this program is prohibited from giving any competitor of
 Gaussian, Inc. access to this program.  By using this program,
 the user acknowledges that Gaussian, Inc. is engaged in the
 business of creating and licensing software in the field of
 computational chemistry and represents and warrants to the
 licensee that it is not a competitor of Gaussian, Inc. and that
 it will not use this program in any manner prohibited above.
 ---------------------------------------------------------------
  

 Cite this work as:
 Gaussian 16, Revision A.03,
 M. J. Frisch, G. W. Trucks, H. B. Schlegel, G. E. Scuseria, 
 M. A. Robb, J. R. Cheeseman, G. Scalmani, V. Barone, 
 G. A. Petersson, H. Nakatsuji, X. Li, M. Caricato, A. V. Marenich, 
 J. Bloino, B. G. Janesko, R. Gomperts, B. Mennucci, H. P. Hratchian, 
 J. V. Ortiz, A. F. Izmaylov, J. L. Sonnenberg, D. Williams-Young, 
 F. Ding, F. Lipparini, F. Egidi, J. Goings, B. Peng, A. Petrone, 
 T. Henderson, D. Ranasinghe, V. G. Zakrzewski, J. Gao, N. Rega, 
 G. Zheng, W. Liang, M. Hada, M. Ehara, K. Toyota, R. Fukuda, 
 J. Hasegawa, M. Ishida, T. Nakajima, Y. Honda, O. Kitao, H. Nakai, 
 T. Vreven, K. Throssell, J. A. Montgomery, Jr., J. E. Peralta, 
 F. Ogliaro, M. J. Bearpark, J. J. Heyd, E. N. Brothers, K. N. Kudin, 
 V. N. Staroverov, T. A. Keith, R. Kobayashi, J. Normand, 
 K. Raghavachari, A. P. Rendell, J. C. Burant, S. S. Iyengar, 
 J. Tomasi, M. Cossi, J. M. Millam, M. Klene, C. Adamo, R. Cammi, 
 J. W. Ochterski, R. L. Martin, K. Morokuma, O. Farkas, 
 J. B. Foresman, and D. J. Fox, Gaussian, Inc., Wallingford CT, 2016.
 
 ******************************************
 Gaussian 16:  ES64L-G16RevA.03 25-Dec-2016
                15-Jun-2024 
 ******************************************
 %nprocshared=64
 Will use up to   64 processors via shared memory.
 %mem=224GB
 %chk=NiIILn2.chk
 ----------------------------------------------------------------------
 #p opt=(calcall,gdiis) freq ub3lyp/6-31+g(d,p) scrf=(iefpcm,solvent=wa
 ter) em=gd3bj scf=(vshift=500,novaracc,fermi)
 ---------------------
 <DELETED FOR SPACE>
 (Enter /work/home/achvfzi98e/apprepo/gaussian/16-hy/scripts/../app/g16/l502.exe)
 Integral symmetry usage will be decided dynamically.
 UHF open shell SCF:
 Using DIIS extrapolation, IDIIS=    10.
 NGot= 30064771072 LenX= 30063790530 LenY= 30063324724
 Requested convergence on RMS density matrix=1.00D-08 within 128 cycles.
 Requested convergence on MAX density matrix=1.00D-06.
 Requested convergence on             energy=1.00D-06.
 Virtual orbitals will be shifted by   0.500 hartree.
 No special actions if energy rises.
 Dynamic level shift is on during FON iterations.
 Fock matrices will be formed incrementally for  20 cycles.

 Cycle   1  Pass 1  IDiag  1:
 FoFJK:  IHMeth= 1 ICntrl=       0 DoSepK=F KAlg= 0 I1Cent=           0 FoldK=F
 IRaf= 850000000 NMat=       1 IRICut=       1 DoRegI=T DoRafI=F ISym2E= 0 IDoP0=0 IntGTp=1.
 FoFCou: FMM=F IPFlag=           0 FMFlag=      100000 FMFlg1=           0
         NFxFlg=           0 DoJE=F BraDBF=F KetDBF=F FulRan=T
         wScrn=  0.000000 ICntrl=         0 IOpCl=  1 I1Cent=           0 NGrid=           0
         NMat0=    1 NMatS0=      1 NMatT0=    0 NMatD0=    1 NMtDS0=    0 NMtDT0=    0
 Symmetry not used in FoFCou.
 Inv3:  Mode=1 IEnd=    23806467.
 Iteration    1 A*A^-1 deviation from unit magnitude is 3.11D-15 for   1391.
 Iteration    1 A*A^-1 deviation from orthogonality  is 1.80D-15 for   2351    257.
 Iteration    1 A^-1*A deviation from unit magnitude is 3.22D-15 for   1391.
 Iteration    1 A^-1*A deviation from orthogonality  is 1.89D-15 for   2682   1391.
 E= -3080.53890769611    
 DIIS: error= 3.76D-02 at cycle   1 NSaved=   1.
 NSaved= 1 IEnMin= 1 EnMin= -3080.53890769611     IErMin= 1 ErrMin= 3.76D-02
 ErrMax= 3.76D-02  0.00D+00 EMaxC= 1.00D+00 BMatC= 7.97D+00 BMatP= 7.97D+00
 IDIUse=1 WtCom= 1.00D+00 WtEn= 0.00D+00
 Coeff-Com:  0.100D+01
 Coeff:      0.100D+01
 Gap=     0.570 Goal=   None    Shift=    0.500
 T= 1632. Gap= 0.539 NK=0 IS=  126 IE=  676 IFin=  125
          NO(<0.9)=   0  NV(>0.1)=   0    125.00e < EF      0.00e >EF  Err=0.0D+00
 Gap=     0.290 Goal=   None    Shift=    0.500
 T= 1632. Gap= 0.203 NK=0 IS=  124 IE=  676 IFin=  123
          NO(<0.9)=   0  NV(>0.1)=   0    123.00e < EF      0.00e >EF  Err=0.0D+00
 GapD=    0.290 DampG=1.000 DampE=0.250 DampFc=0.2500 IDamp=-1.
 Damping current iteration by 2.50D-01
 RMSDP=2.50D-02 MaxDP=9.10D+00              OVMax= 4.62D-01

 Cycle   2  Pass 1  IDiag  1:
 RMSU=  6.14D-03    CP:  9.79D-01
 E= -3081.09158937647     Delta-E=       -0.552681680361 Rises=F Damp=T
 DIIS: error= 1.24D-02 at cycle   2 NSaved=   2.
 NSaved= 2 IEnMin= 2 EnMin= -3081.09158937647     IErMin= 2 ErrMin= 1.24D-02
 ErrMax= 1.24D-02  0.00D+00 EMaxC= 1.00D+00 BMatC= 1.61D+00 BMatP= 7.97D+00
 IDIUse=1 WtCom= 1.00D+00 WtEn= 0.00D+00
 Coeff-Com: -0.485D+00 0.149D+01
 Coeff:     -0.485D+00 0.149D+01
 Gap=     0.139 Goal=   None    Shift=    0.500
 T= 1480. Gap= 0.520 NK=0 IS=  126 IE=  676 IFin=  125
          NO(<0.9)=   0  NV(>0.1)=   0    125.00e < EF      0.00e >EF  Err=0.0D+00
 Gap=     0.202 Goal=   None    Shift=    0.500
 T= 1480. Gap= 0.550 NK=0 IS=  124 IE=  676 IFin=  123
          NO(<0.9)=   0  NV(>0.1)=   0    123.00e < EF      0.00e >EF  Err=0.0D+00
 GapD=    0.139 DampG=1.000 DampE=0.500 DampFc=0.5000 IDamp=-1.
 Damping current iteration by 5.00D-01
 RMSDP=2.31D-02 MaxDP=9.22D+00 DE=-5.53D-01 OVMax= 1.79D-01

 Cycle   3  Pass 1  IDiag  1:
 RMSU=  5.44D-03    CP:  8.12D-01  6.51D-01
 E= -3081.39442148055     Delta-E=       -0.302832104073 Rises=F Damp=T
 DIIS: error= 6.95D-03 at cycle   3 NSaved=   3.
 NSaved= 3 IEnMin= 3 EnMin= -3081.39442148055     IErMin= 3 ErrMin= 6.95D-03
 ErrMax= 6.95D-03  0.00D+00 EMaxC= 1.00D+00 BMatC= 2.91D-01 BMatP= 1.61D+00
 IDIUse=1 WtCom= 1.00D+00 WtEn= 0.00D+00
 Coeff-Com:  0.357D+00-0.654D+00 0.130D+01
 Coeff:      0.357D+00-0.654D+00 0.130D+01
 Gap=     0.061 Goal=   None    Shift=    0.500
 T= 1222. Gap= 0.561 NK=0 IS=  126 IE=  676 IFin=  125
          NO(<0.9)=   0  NV(>0.1)=   0    125.00e < EF      0.00e >EF  Err=0.0D+00
 Gap=     0.084 Goal=   None    Shift=    0.500
 T= 1222. Gap= 0.583 NK=0 IS=  124 IE=  676 IFin=  123
          NO(<0.9)=   0  NV(>0.1)=   0    123.00e < EF      0.00e >EF  Err=0.0D+00
 GapD=    0.061 DampG=0.500 DampE=1.000 DampFc=0.5000 IDamp=-1.
 Damping current iteration by 5.00D-01
 RMSDP=1.22D-02 MaxDP=3.79D+00 DE=-3.03D-01 OVMax= 1.19D-01

 Cycle   4  Pass 1  IDiag  1:
 RMSU=  1.75D-03    CP:  7.22D-01  5.06D-01  1.37D+00
 E= -3081.52902332322     Delta-E=       -0.134601842676 Rises=F Damp=T
 DIIS: error= 7.04D-03 at cycle   4 NSaved=   4.
 NSaved= 4 IEnMin= 4 EnMin= -3081.52902332322     IErMin= 3 ErrMin= 6.95D-03
 ErrMax= 7.04D-03  0.00D+00 EMaxC= 1.00D+00 BMatC= 1.90D-01 BMatP= 2.91D-01
 IDIUse=1 WtCom= 1.00D+00 WtEn= 0.00D+00
 Coeff-Com:  0.539D-01 0.207D+00-0.135D+01 0.209D+01
 Coeff:      0.539D-01 0.207D+00-0.135D+01 0.209D+01
 Gap=     0.110 Goal=   None    Shift=    0.500
 T=  761. Gap= 0.607 NK=0 IS=  126 IE=  676 IFin=  125
          NO(<0.9)=   0  NV(>0.1)=   0    125.00e < EF      0.00e >EF  Err=0.0D+00
 Gap=     0.130 Goal=   None    Shift=    0.500
 T=  761. Gap= 0.628 NK=0 IS=  124 IE=  676 IFin=  123
          NO(<0.9)=   0  NV(>0.1)=   0    123.00e < EF      0.00e >EF  Err=0.0D+00
 GapD=    0.110 DampG=1.000 DampE=1.000 DampFc=1.0000 IDamp=-1.
 RMSDP=4.08D-03 MaxDP=1.16D+00 DE=-1.35D-01 OVMax= 6.74D-02

 Cycle   5  Pass 1  IDiag  1:
 RMSU=  1.22D-03    CP:  6.73D-01  3.58D-01  1.54D+00  2.26D+00
 E= -3081.69814613854     Delta-E=       -0.169122815322 Rises=F Damp=F
 DIIS: error= 2.68D-03 at cycle   5 NSaved=   5.
 NSaved= 5 IEnMin= 5 EnMin= -3081.69814613854     IErMin= 5 ErrMin= 2.68D-03
 ErrMax= 2.68D-03  0.00D+00 EMaxC= 1.00D+00 BMatC= 2.63D-02 BMatP= 1.90D-01
 IDIUse=1 WtCom= 1.00D+00 WtEn= 0.00D+00
 Coeff-Com: -0.125D+00 0.385D+00-0.598D+00 0.395D+00 0.944D+00
 Coeff:     -0.125D+00 0.385D+00-0.598D+00 0.395D+00 0.944D+00
 Gap=     0.119 Goal=   None    Shift=    0.500
 T=  484. Gap= 0.617 NK=0 IS=  126 IE=  676 IFin=  125
          NO(<0.9)=   0  NV(>0.1)=   0    125.00e < EF      0.00e >EF  Err=0.0D+00
 Gap=     0.142 Goal=   None    Shift=    0.500
 T=  484. Gap= 0.639 NK=0 IS=  124 IE=  676 IFin=  123
          NO(<0.9)=   0  NV(>0.1)=   0    123.00e < EF      0.00e >EF  Err=0.0D+00
 GapD=    0.119 DampG=1.000 DampE=1.000 DampFc=1.0000 IDamp=-1.
 RMSDP=1.06D-03 MaxDP=2.79D-01 DE=-1.69D-01 OVMax= 3.92D-02

 Cycle   6  Pass 1  IDiag  1:
 RMSU=  5.51D-04    CP:  6.81D-01  3.79D-01  1.47D+00  2.27D+00  1.50D+00
 E= -3081.70950135807     Delta-E=       -0.011355219532 Rises=F Damp=F
 DIIS: error= 1.62D-03 at cycle   6 NSaved=   6.
 NSaved= 6 IEnMin= 6 EnMin= -3081.70950135807     IErMin= 6 ErrMin= 1.62D-03
 ErrMax= 1.62D-03  0.00D+00 EMaxC= 1.00D+00 BMatC= 5.86D-03 BMatP= 2.63D-02
 IDIUse=1 WtCom= 1.00D+00 WtEn= 0.00D+00
 Coeff-Com: -0.731D-01 0.963D-01 0.224D+00-0.497D+00-0.145D-01 0.126D+01
 Coeff:     -0.731D-01 0.963D-01 0.224D+00-0.497D+00-0.145D-01 0.126D+01
 Gap=     0.126 Goal=   None    Shift=    0.500
 T=  253. Gap= 0.625 NK=0 IS=  126 IE=  676 IFin=  125
          NO(<0.9)=   0  NV(>0.1)=   0    125.00e < EF      0.00e >EF  Err=0.0D+00
 Gap=     0.147 Goal=   None    Shift=    0.500
 T=  253. Gap= 0.646 NK=0 IS=  124 IE=  676 IFin=  123
          NO(<0.9)=   0  NV(>0.1)=   0    123.00e < EF      0.00e >EF  Err=0.0D+00
 GapD=    0.126 DampG=1.000 DampE=1.000 DampFc=1.0000 IDamp=-1.
 RMSDP=7.16D-04 MaxDP=4.96D-02 DE=-1.14D-02 OVMax= 2.88D-02

 Cycle   7  Pass 1  IDiag  1:
 RMSU=  2.69D-04    CP:  6.88D-01  3.71D-01  1.45D+00  2.10D+00  1.80D+00
                    CP:  1.52D+00
 E= -3081.71476727230     Delta-E=       -0.005265914223 Rises=F Damp=F
 DIIS: error= 1.38D-03 at cycle   7 NSaved=   7.
 NSaved= 7 IEnMin= 7 EnMin= -3081.71476727230     IErMin= 7 ErrMin= 1.38D-03
 ErrMax= 1.38D-03  0.00D+00 EMaxC= 1.00D+00 BMatC= 2.93D-03 BMatP= 5.86D-03
 IDIUse=1 WtCom= 1.00D+00 WtEn= 0.00D+00
 Coeff-Com:  0.113D-01-0.124D+00 0.496D+00-0.646D+00-0.320D+00 0.332D+00
 Coeff-Com:  0.125D+01
 Coeff:      0.113D-01-0.124D+00 0.496D+00-0.646D+00-0.320D+00 0.332D+00
 Coeff:      0.125D+01
 Gap=     0.128 Goal=   None    Shift=    0.500
 Gap=     0.148 Goal=   None    Shift=    0.500
 GapD=    0.128 DampG=1.000 DampE=1.000 DampFc=1.0000 IDamp=-1.
 RMSDP=4.94D-04 MaxDP=5.01D-02 DE=-5.27D-03 OVMax= 2.53D-02

 Cycle   8  Pass 1  IDiag  1:
 RMSU=  1.55D-04    CP:  6.91D-01  3.64D-01  1.45D+00  1.95D+00  1.96D+00
                    CP:  1.85D+00  1.77D+00
 E= -3081.71800479673     Delta-E=       -0.003237524435 Rises=F Damp=F
 DIIS: error= 1.02D-03 at cycle   8 NSaved=   8.
 NSaved= 8 IEnMin= 8 EnMin= -3081.71800479673     IErMin= 8 ErrMin= 1.02D-03
 ErrMax= 1.02D-03  0.00D+00 EMaxC= 1.00D+00 BMatC= 1.91D-03 BMatP= 2.93D-03
 IDIUse=1 WtCom= 1.00D+00 WtEn= 0.00D+00
 Coeff-Com:  0.225D-01-0.753D-01 0.196D+00-0.262D+00-0.763D-01-0.206D+00
 Coeff-Com: -0.188D+00 0.159D+01
 Coeff:      0.225D-01-0.753D-01 0.196D+00-0.262D+00-0.763D-01-0.206D+00
 Coeff:     -0.188D+00 0.159D+01
 Gap=     0.130 Goal=   None    Shift=    0.500
 Gap=     0.150 Goal=   None    Shift=    0.500
 GapD=    0.130 DampG=1.000 DampE=1.000 DampFc=1.0000 IDamp=-1.
 RMSDP=3.52D-04 MaxDP=7.38D-02 DE=-3.24D-03 OVMax= 2.02D-02

 Cycle   9  Pass 1  IDiag  1:
 RMSU=  5.93D-05    CP:  6.91D-01  3.53D-01  1.45D+00  1.84D+00  2.02D+00
                    CP:  2.06D+00  2.48D+00  1.99D+00
 E= -3081.71986958794     Delta-E=       -0.001864791211 Rises=F Damp=F
 DIIS: error= 7.56D-04 at cycle   9 NSaved=   9.
 NSaved= 9 IEnMin= 9 EnMin= -3081.71986958794     IErMin= 9 ErrMin= 7.56D-04
 ErrMax= 7.56D-04  0.00D+00 EMaxC= 1.00D+00 BMatC= 1.23D-03 BMatP= 1.91D-03
 IDIUse=1 WtCom= 1.00D+00 WtEn= 0.00D+00
 Coeff-Com: -0.174D-01 0.505D-01-0.518D-01-0.216D-01 0.137D+00 0.822D-01
 Coeff-Com: -0.183D+00-0.199D+01 0.300D+01
 Coeff:     -0.174D-01 0.505D-01-0.518D-01-0.216D-01 0.137D+00 0.822D-01
 Coeff:     -0.183D+00-0.199D+01 0.300D+01
 Gap=     0.130 Goal=   None    Shift=    0.500
 Gap=     0.150 Goal=   None    Shift=    0.500
 RMSDP=2.81D-04 MaxDP=7.26D-02 DE=-1.86D-03 OVMax= 1.55D-02

 Cycle  10  Pass 1  IDiag  1:
 RMSU=  6.15D-05    CP:  6.90D-01  3.46D-01  1.46D+00  1.77D+00  2.02D+00
                    CP:  2.15D+00  3.00D+00  2.89D+00  2.07D+00
 E= -3081.72089811572     Delta-E=       -0.001028527779 Rises=F Damp=F
 DIIS: error= 5.36D-04 at cycle  10 NSaved=  10.
 NSaved=10 IEnMin=10 EnMin= -3081.72089811572     IErMin=10 ErrMin= 5.36D-04
 ErrMax= 5.36D-04  0.00D+00 EMaxC= 1.00D+00 BMatC= 8.13D-04 BMatP= 1.23D-03
 IDIUse=1 WtCom= 1.00D+00 WtEn= 0.00D+00
 Coeff-Com: -0.155D-01 0.322D-01 0.478D-02-0.656D-01 0.945D-01 0.242D+00
 Coeff-Com:  0.246D+00-0.241D+01 0.130D+01 0.158D+01
 Coeff:     -0.155D-01 0.322D-01 0.478D-02-0.656D-01 0.945D-01 0.242D+00
 Coeff:      0.246D+00-0.241D+01 0.130D+01 0.158D+01
 Gap=     0.131 Goal=   None    Shift=    0.500
 Gap=     0.151 Goal=   None    Shift=    0.500
 RMSDP=2.31D-04 MaxDP=4.46D-02 DE=-1.03D-03 OVMax= 1.13D-02

 Cycle  11  Pass 1  IDiag  1:
 RMSU=  1.45D-04    CP:  6.90D-01  3.40D-01  1.45D+00  1.72D+00  2.00D+00
                    CP:  2.18D+00  3.00D+00  3.00D+00  3.00D+00  2.85D+00
 E= -3081.72146142932     Delta-E=       -0.000563313600 Rises=F Damp=F
 DIIS: error= 3.71D-04 at cycle  11 NSaved=  11.
 NSaved=11 IEnMin=11 EnMin= -3081.72146142932     IErMin=11 ErrMin= 3.71D-04
 ErrMax= 3.71D-04  0.00D+00 EMaxC= 1.00D+00 BMatC= 4.06D-04 BMatP= 8.13D-04
 IDIUse=1 WtCom= 1.00D+00 WtEn= 0.00D+00
 Coeff-Com:  0.104D-02-0.171D-01 0.745D-01-0.930D-01 0.187D-02 0.161D+00
 Coeff-Com:  0.362D+00-0.102D+01-0.688D+00 0.586D+00 0.163D+01
 Coeff:      0.104D-02-0.171D-01 0.745D-01-0.930D-01 0.187D-02 0.161D+00
 Coeff:      0.362D+00-0.102D+01-0.688D+00 0.586D+00 0.163D+01
 Gap=     0.131 Goal=   None    Shift=    0.500
 Gap=     0.151 Goal=   None    Shift=    0.500
 RMSDP=1.80D-04 MaxDP=3.16D-02 DE=-5.63D-04 OVMax= 8.43D-03

 Cycle  12  Pass 1  IDiag  1:
 RMSU=  9.73D-05    CP:  6.89D-01  3.36D-01  1.45D+00  1.68D+00  1.99D+00
                    CP:  2.19D+00  3.00D+00  3.00D+00  3.00D+00  3.00D+00
                    CP:  1.85D+00
 E= -3081.72176465260     Delta-E=       -0.000303223277 Rises=F Damp=F
 DIIS: error= 2.61D-04 at cycle  12 NSaved=  12.
 NSaved=12 IEnMin=12 EnMin= -3081.72176465260     IErMin=12 ErrMin= 2.61D-04
 ErrMax= 2.61D-04  0.00D+00 EMaxC= 1.00D+00 BMatC= 2.27D-04 BMatP= 4.06D-04
 IDIUse=1 WtCom= 1.00D+00 WtEn= 0.00D+00
 Coeff-Com:  0.309D-02-0.847D-02 0.115D-01-0.967D-02 0.254D-02-0.227D-01
 Coeff-Com:  0.172D-01 0.361D+00-0.628D+00-0.623D+00-0.476D+00 0.237D+01
 Coeff:      0.309D-02-0.847D-02 0.115D-01-0.967D-02 0.254D-02-0.227D-01
 Coeff:      0.172D-01 0.361D+00-0.628D+00-0.623D+00-0.476D+00 0.237D+01
 Gap=     0.131 Goal=   None    Shift=    0.500
 Gap=     0.151 Goal=   None    Shift=    0.500
 RMSDP=1.48D-04 MaxDP=2.37D-02 DE=-3.03D-04 OVMax= 6.31D-03

 Cycle  13  Pass 1  IDiag  1:
 RMSU=  1.58D-05    CP:  6.89D-01  3.34D-01  1.45D+00  1.65D+00  1.98D+00
                    CP:  2.19D+00  3.00D+00  3.00D+00  3.00D+00  3.00D+00
                    CP:  2.55D+00  1.91D+00
 E= -3081.72192995003     Delta-E=       -0.000165297428 Rises=F Damp=F
 DIIS: error= 1.97D-04 at cycle  13 NSaved=  13.
 NSaved=13 IEnMin=13 EnMin= -3081.72192995003     IErMin=13 ErrMin= 1.97D-04
 ErrMax= 1.97D-04  0.00D+00 EMaxC= 1.00D+00 BMatC= 1.56D-04 BMatP= 2.27D-04
 IDIUse=1 WtCom= 1.00D+00 WtEn= 0.00D+00
 Coeff-Com:  0.227D-02-0.224D-02-0.688D-02 0.813D-02 0.962D-02-0.507D-01
 Coeff-Com: -0.261D-01 0.434D+00-0.252D+00-0.753D+00-0.639D+00 0.654D+00
 Coeff-Com:  0.162D+01
 Coeff:      0.227D-02-0.224D-02-0.688D-02 0.813D-02 0.962D-02-0.507D-01
 Coeff:     -0.261D-01 0.434D+00-0.252D+00-0.753D+00-0.639D+00 0.654D+00
 Coeff:      0.162D+01
 Gap=     0.131 Goal=   None    Shift=    0.500
 Gap=     0.151 Goal=   None    Shift=    0.500
 RMSDP=1.21D-04 MaxDP=1.48D-02 DE=-1.65D-04 OVMax= 4.65D-03

 Cycle  14  Pass 1  IDiag  1:
 RMSU=  2.13D-05    CP:  6.88D-01  3.32D-01  1.45D+00  1.64D+00  1.96D+00
                    CP:  2.18D+00  3.00D+00  3.00D+00  3.00D+00  3.00D+00
                    CP:  3.00D+00  2.68D+00  1.81D+00
 E= -3081.72202254094     Delta-E=       -0.000092590915 Rises=F Damp=F
 DIIS: error= 1.38D-04 at cycle  14 NSaved=  14.
 NSaved=14 IEnMin=14 EnMin= -3081.72202254094     IErMin=14 ErrMin= 1.38D-04
 ErrMax= 1.38D-04  0.00D+00 EMaxC= 1.00D+00 BMatC= 9.15D-05 BMatP= 1.56D-04
 IDIUse=1 WtCom= 1.00D+00 WtEn= 0.00D+00
 Coeff-Com: -0.198D-03 0.117D-02 0.360D-02-0.112D-01 0.123D-01-0.884D-03
 Coeff-Com:  0.874D-01-0.200D+00 0.310D+00-0.142D+00 0.278D+00-0.190D+01
 Coeff-Com: -0.102D+00 0.267D+01
 Coeff:     -0.198D-03 0.117D-02 0.360D-02-0.112D-01 0.123D-01-0.884D-03
 Coeff:      0.874D-01-0.200D+00 0.310D+00-0.142D+00 0.278D+00-0.190D+01
 Coeff:     -0.102D+00 0.267D+01
 Gap=     0.132 Goal=   None    Shift=    0.500
 Gap=     0.151 Goal=   None    Shift=    0.500
 RMSDP=9.67D-05 MaxDP=9.14D-03 DE=-9.26D-05 OVMax= 3.57D-03

 Cycle  15  Pass 1  IDiag  1:
 RMSU=  4.74D-05    CP:  6.88D-01  3.31D-01  1.45D+00  1.63D+00  1.95D+00
                    CP:  2.17D+00  3.00D+00  3.00D+00  3.00D+00  3.00D+00
                    CP:  3.00D+00  3.00D+00  2.72D+00  3.00D+00
 E= -3081.72207420027     Delta-E=       -0.000051659324 Rises=F Damp=F
 DIIS: error= 9.55D-05 at cycle  15 NSaved=  15.
 NSaved=15 IEnMin=15 EnMin= -3081.72207420027     IErMin=15 ErrMin= 9.55D-05
 ErrMax= 9.55D-05  0.00D+00 EMaxC= 1.00D+00 BMatC= 4.50D-05 BMatP= 9.15D-05
 IDIUse=1 WtCom= 1.00D+00 WtEn= 0.00D+00
 Coeff-Com: -0.888D-05-0.291D-03 0.481D-02-0.817D-02 0.797D-02-0.443D-02
 Coeff-Com:  0.544D-01-0.160D+00 0.204D+00 0.100D-01 0.243D+00-0.104D+01
 Coeff-Com: -0.613D+00 0.563D+00 0.173D+01
 Coeff:     -0.888D-05-0.291D-03 0.481D-02-0.817D-02 0.797D-02-0.443D-02
 Coeff:      0.544D-01-0.160D+00 0.204D+00 0.100D-01 0.243D+00-0.104D+01
 Coeff:     -0.613D+00 0.563D+00 0.173D+01
 Gap=     0.132 Goal=   None    Shift=    0.500
 Gap=     0.151 Goal=   None    Shift=    0.500
 RMSDP=7.55D-05 MaxDP=4.90D-03 DE=-5.17D-05 OVMax= 2.75D-03

 Cycle  16  Pass 1  IDiag  1:
 RMSU=  3.62D-05    CP:  6.88D-01  3.31D-01  1.45D+00  1.62D+00  1.94D+00
                    CP:  2.15D+00  3.00D+00  3.00D+00  3.00D+00  3.00D+00
                    CP:  3.00D+00  3.00D+00  3.00D+00  3.00D+00  2.30D+00
 E= -3081.72210200501     Delta-E=       -0.000027804741 Rises=F Damp=F
 DIIS: error= 7.16D-05 at cycle  16 NSaved=  16.
 NSaved=16 IEnMin=16 EnMin= -3081.72210200501     IErMin=16 ErrMin= 7.16D-05
 ErrMax= 7.16D-05  0.00D+00 EMaxC= 1.00D+00 BMatC= 2.27D-05 BMatP= 4.50D-05
 IDIUse=1 WtCom= 1.00D+00 WtEn= 0.00D+00
 Coeff-Com:  0.168D-03-0.407D-03-0.167D-03 0.174D-02 0.268D-02-0.116D-01
 Coeff-Com:  0.893D-03-0.525D-03 0.248D-01 0.107D-01 0.217D-01 0.696D-02
 Coeff-Com: -0.487D+00-0.694D+00 0.613D+00 0.151D+01
 Coeff:      0.168D-03-0.407D-03-0.167D-03 0.174D-02 0.268D-02-0.116D-01
 Coeff:      0.893D-03-0.525D-03 0.248D-01 0.107D-01 0.217D-01 0.696D-02
 Coeff:     -0.487D+00-0.694D+00 0.613D+00 0.151D+01
 Gap=     0.132 Goal=   None    Shift=    0.500
 Gap=     0.151 Goal=   None    Shift=    0.500
 RMSDP=6.03D-05 MaxDP=3.92D-03 DE=-2.78D-05 OVMax= 2.10D-03

 Cycle  17  Pass 1  IDiag  1:
 RMSU=  1.60D-05    CP:  6.88D-01  3.30D-01  1.45D+00  1.61D+00  1.93D+00
                    CP:  2.14D+00  3.00D+00  3.00D+00  3.00D+00  3.00D+00
                    CP:  3.00D+00  3.00D+00  3.00D+00  3.00D+00  3.00D+00
                    CP:  1.86D+00
 E= -3081.72211710261     Delta-E=       -0.000015097602 Rises=F Damp=F
 DIIS: error= 5.46D-05 at cycle  17 NSaved=  17.
 NSaved=17 IEnMin=17 EnMin= -3081.72211710261     IErMin=17 ErrMin= 5.46D-05
 ErrMax= 5.46D-05  0.00D+00 EMaxC= 1.00D+00 BMatC= 1.26D-05 BMatP= 2.27D-05
 IDIUse=1 WtCom= 1.00D+00 WtEn= 0.00D+00
 Coeff-Com:  0.103D-03 0.838D-03-0.724D-02 0.112D-01-0.358D-02-0.775D-02
 Coeff-Com: -0.349D-01 0.155D+00-0.142D+00-0.887D-01-0.195D+00 0.623D+00
 Coeff-Com:  0.260D+00-0.442D+00-0.197D+01 0.546D+00 0.229D+01
 Coeff:      0.103D-03 0.838D-03-0.724D-02 0.112D-01-0.358D-02-0.775D-02
 Coeff:     -0.349D-01 0.155D+00-0.142D+00-0.887D-01-0.195D+00 0.623D+00
 Coeff:      0.260D+00-0.442D+00-0.197D+01 0.546D+00 0.229D+01
 Gap=     0.132 Goal=   None    Shift=    0.500
 Gap=     0.151 Goal=   None    Shift=    0.500
 RMSDP=4.90D-05 MaxDP=3.14D-03 DE=-1.51D-05 OVMax= 1.64D-03

 Cycle  18  Pass 1  IDiag  1:
 RMSU=  1.09D-05    CP:  6.88D-01  3.30D-01  1.45D+00  1.61D+00  1.93D+00
                    CP:  2.13D+00  3.00D+00  3.00D+00  3.00D+00  3.00D+00
                    CP:  3.00D+00  3.00D+00  3.00D+00  3.00D+00  3.00D+00
                    CP:  2.58D+00  3.00D+00
 E= -3081.72212542907     Delta-E=       -0.000008326463 Rises=F Damp=F
 DIIS: error= 4.07D-05 at cycle  18 NSaved=  18.
 NSaved=18 IEnMin=18 EnMin= -3081.72212542907     IErMin=18 ErrMin= 4.07D-05
 ErrMax= 4.07D-05  0.00D+00 EMaxC= 1.00D+00 BMatC= 8.23D-06 BMatP= 1.26D-05
 IDIUse=1 WtCom= 1.00D+00 WtEn= 0.00D+00
 Coeff-Com:  0.353D-03-0.548D-03 0.346D-03-0.452D-03-0.522D-03 0.601D-04
 Coeff-Com:  0.117D-01 0.364D-01-0.435D-01-0.892D-01 0.290D-02-0.173D-01
 Coeff-Com:  0.348D+00 0.272D+00-0.114D+01-0.526D+00-0.203D+00 0.235D+01
 Coeff:      0.353D-03-0.548D-03 0.346D-03-0.452D-03-0.522D-03 0.601D-04
 Coeff:      0.117D-01 0.364D-01-0.435D-01-0.892D-01 0.290D-02-0.173D-01
 Coeff:      0.348D+00 0.272D+00-0.114D+01-0.526D+00-0.203D+00 0.235D+01
 Gap=     0.132 Goal=   None    Shift=    0.500
 Gap=     0.151 Goal=   None    Shift=    0.500
 RMSDP=3.91D-05 MaxDP=2.52D-03 DE=-8.33D-06 OVMax= 1.25D-03

 Cycle  19  Pass 1  IDiag  1:
 RMSU=  2.26D-05    CP:  6.88D-01  3.30D-01  1.45D+00  1.61D+00  1.92D+00
                    CP:  2.12D+00  3.00D+00  3.00D+00  3.00D+00  3.00D+00
                    CP:  3.00D+00  3.00D+00  3.00D+00  3.00D+00  3.00D+00
                    CP:  3.00D+00  3.00D+00  2.96D+00
 E= -3081.72213019664     Delta-E=       -0.000004767568 Rises=F Damp=F
 DIIS: error= 2.98D-05 at cycle  19 NSaved=  19.
 NSaved=19 IEnMin=19 EnMin= -3081.72213019664     IErMin=19 ErrMin= 2.98D-05
 ErrMax= 2.98D-05  0.00D+00 EMaxC= 1.00D+00 BMatC= 4.37D-06 BMatP= 8.23D-06
 IDIUse=1 WtCom= 1.00D+00 WtEn= 0.00D+00
 Coeff-Com:  0.216D-03-0.507D-03 0.160D-02-0.241D-02 0.214D-02-0.368D-02
 Coeff-Com:  0.119D-01 0.248D-02 0.190D-01-0.580D-01 0.262D-01-0.145D+00
 Coeff-Com:  0.194D+00 0.190D+00-0.196D+00-0.563D+00-0.564D+00 0.117D+00
 Coeff-Com:  0.197D+01
 Coeff:      0.216D-03-0.507D-03 0.160D-02-0.241D-02 0.214D-02-0.368D-02
 Coeff:      0.119D-01 0.248D-02 0.190D-01-0.580D-01 0.262D-01-0.145D+00
 Coeff:      0.194D+00 0.190D+00-0.196D+00-0.563D+00-0.564D+00 0.117D+00
 Coeff:      0.197D+01
 Gap=     0.132 Goal=   None    Shift=    0.500
 Gap=     0.151 Goal=   None    Shift=    0.500
 RMSDP=3.08D-05 MaxDP=2.00D-03 DE=-4.77D-06 OVMax= 9.51D-04

 Cycle  20  Pass 1  IDiag  1:
 RMSU=  1.95D-05    CP:  6.88D-01  3.30D-01  1.45D+00  1.60D+00  1.92D+00
                    CP:  2.11D+00  3.00D+00  3.00D+00  3.00D+00  3.00D+00
                    CP:  3.00D+00  3.00D+00  3.00D+00  3.00D+00  3.00D+00
                    CP:  3.00D+00  3.00D+00  3.00D+00  1.96D+00
 E= -3081.72213284166     Delta-E=       -0.000002645023 Rises=F Damp=F
 DIIS: error= 2.16D-05 at cycle  20 NSaved=  20.
 NSaved=20 IEnMin=20 EnMin= -3081.72213284166     IErMin=20 ErrMin= 2.16D-05
 ErrMax= 2.16D-05  0.00D+00 EMaxC= 1.00D+00 BMatC= 2.12D-06 BMatP= 4.37D-06
 IDIUse=1 WtCom= 1.00D+00 WtEn= 0.00D+00
 Coeff-Com: -0.180D-04 0.950D-04 0.237D-03-0.707D-03 0.269D-02-0.645D-02
 Coeff-Com:  0.207D-02 0.106D-02 0.404D-01-0.322D-01 0.103D-02-0.111D+00
 Coeff-Com:  0.821D-01 0.535D-01 0.221D+00-0.362D+00-0.370D+00-0.102D+01
 Coeff-Com:  0.119D+01 0.130D+01
 Coeff:     -0.180D-04 0.950D-04 0.237D-03-0.707D-03 0.269D-02-0.645D-02
 Coeff:      0.207D-02 0.106D-02 0.404D-01-0.322D-01 0.103D-02-0.111D+00
 Coeff:      0.821D-01 0.535D-01 0.221D+00-0.362D+00-0.370D+00-0.102D+01
 Coeff:      0.119D+01 0.130D+01
 Gap=     0.132 Goal=   None    Shift=    0.500
 Gap=     0.151 Goal=   None    Shift=    0.500
 RMSDP=2.39D-05 MaxDP=1.56D-03 DE=-2.65D-06 OVMax= 7.18D-04

 Cycle  21  Pass 1  IDiag  1:
 Restarting incremental Fock formation.
 E= -3081.72213427816     Delta-E=       -0.000001436501 Rises=F Damp=F
 DIIS: error= 1.57D-05 at cycle  21 NSaved=  20.
 NSaved=20 IEnMin=20 EnMin= -3081.72213427816     IErMin=20 ErrMin= 1.57D-05
 ErrMax= 1.57D-05  0.00D+00 EMaxC= 1.00D+00 BMatC= 1.06D-06 BMatP= 2.12D-06
 IDIUse=1 WtCom= 1.00D+00 WtEn= 0.00D+00
 Coeff-Com:  0.219D-03-0.140D-02 0.213D-02-0.323D-03-0.507D-02-0.631D-02
 Coeff-Com:  0.210D-01 0.610D-02-0.121D-01-0.283D-01 0.178D-01 0.310D-01
 Coeff-Com: -0.343D-01 0.393D-01-0.127D-01 0.510D-01-0.425D+00-0.674D+00
 Coeff-Com: -0.297D-01 0.206D+01
 Coeff:      0.219D-03-0.140D-02 0.213D-02-0.323D-03-0.507D-02-0.631D-02
 Coeff:      0.210D-01 0.610D-02-0.121D-01-0.283D-01 0.178D-01 0.310D-01
 Coeff:     -0.343D-01 0.393D-01-0.127D-01 0.510D-01-0.425D+00-0.674D+00
 Coeff:     -0.297D-01 0.206D+01
 Gap=     0.132 Goal=   None    Shift=    0.500
 Gap=     0.151 Goal=   None    Shift=    0.500
 RMSDP=1.85D-05 MaxDP=1.19D-03 DE=-1.44D-06 OVMax= 5.40D-04

 Cycle  22  Pass 1  IDiag  1:
 RMSU=  1.84D-05    CP:  1.00D+00
 E= -3081.72213504259     Delta-E=       -0.000000764424 Rises=F Damp=F
 DIIS: error= 1.17D-05 at cycle  22 NSaved=  20.
 NSaved=20 IEnMin=20 EnMin= -3081.72213504259     IErMin=20 ErrMin= 1.17D-05
 ErrMax= 1.17D-05  0.00D+00 EMaxC= 1.00D+00 BMatC= 6.94D-07 BMatP= 1.06D-06
 IDIUse=1 WtCom= 1.00D+00 WtEn= 0.00D+00
 Coeff-Com: -0.326D-03 0.744D-03-0.141D-02 0.182D-02 0.820D-03-0.361D-02
 Coeff-Com: -0.111D-01 0.168D-01 0.739D-02 0.261D-01-0.234D-01-0.660D-01
 Coeff-Com: -0.442D-01 0.152D+00 0.118D+00 0.174D+00-0.104D+01-0.597D+00
 Coeff-Com:  0.330D+00 0.196D+01
 Coeff:     -0.326D-03 0.744D-03-0.141D-02 0.182D-02 0.820D-03-0.361D-02
 Coeff:     -0.111D-01 0.168D-01 0.739D-02 0.261D-01-0.234D-01-0.660D-01
 Coeff:     -0.442D-01 0.152D+00 0.118D+00 0.174D+00-0.104D+01-0.597D+00
 Coeff:      0.330D+00 0.196D+01
 Gap=     0.132 Goal=   None    Shift=    0.500
 Gap=     0.151 Goal=   None    Shift=    0.500
 RMSDP=1.44D-05 MaxDP=9.52D-04 DE=-7.64D-07 OVMax= 4.03D-04

 Cycle  23  Pass 1  IDiag  1:
 RMSU=  8.78D-07    CP:  1.00D+00  1.77D+00
 E= -3081.72213547330     Delta-E=       -0.000000430709 Rises=F Damp=F
 DIIS: error= 8.46D-06 at cycle  23 NSaved=  20.
 NSaved=20 IEnMin=20 EnMin= -3081.72213547330     IErMin=20 ErrMin= 8.46D-06
 ErrMax= 8.46D-06  0.00D+00 EMaxC= 1.00D+00 BMatC= 3.87D-07 BMatP= 6.94D-07
 IDIUse=1 WtCom= 1.00D+00 WtEn= 0.00D+00
 Coeff-Com:  0.554D-04-0.531D-03 0.272D-02 0.196D-02-0.929D-02-0.759D-02
 Coeff-Com:  0.146D-01 0.166D-01 0.617D-02-0.196D-01-0.415D-01-0.636D-01
 Coeff-Com:  0.125D+00 0.580D-01 0.308D+00-0.609D+00-0.487D+00-0.649D+00
 Coeff-Com:  0.995D+00 0.136D+01
 Coeff:      0.554D-04-0.531D-03 0.272D-02 0.196D-02-0.929D-02-0.759D-02
 Coeff:      0.146D-01 0.166D-01 0.617D-02-0.196D-01-0.415D-01-0.636D-01
 Coeff:      0.125D+00 0.580D-01 0.308D+00-0.609D+00-0.487D+00-0.649D+00
 Coeff:      0.995D+00 0.136D+01
 Gap=     0.132 Goal=   None    Shift=    0.500
 Gap=     0.151 Goal=   None    Shift=    0.500
 RMSDP=1.10D-05 MaxDP=7.40D-04 DE=-4.31D-07 OVMax= 3.02D-04

 Cycle  24  Pass 1  IDiag  1:
 RMSU=  5.11D-07    CP:  1.00D+00  2.36D+00  2.03D+00
 E= -3081.72213571505     Delta-E=       -0.000000241748 Rises=F Damp=F
 DIIS: error= 6.02D-06 at cycle  24 NSaved=  20.
 NSaved=20 IEnMin=20 EnMin= -3081.72213571505     IErMin=20 ErrMin= 6.02D-06
 ErrMax= 6.02D-06  0.00D+00 EMaxC= 1.00D+00 BMatC= 1.92D-07 BMatP= 3.87D-07
 IDIUse=1 WtCom= 1.00D+00 WtEn= 0.00D+00
 Coeff-Com:  0.365D-03-0.675D-03-0.225D-02 0.758D-02-0.432D-02-0.546D-02
 Coeff-Com: -0.587D-02 0.243D-01 0.147D-01-0.237D-01-0.708D-01 0.218D-01
 Coeff-Com:  0.381D-01 0.107D+00 0.470D-01-0.865D-01-0.499D+00-0.630D+00
 Coeff-Com: -0.617D-01 0.213D+01
 Coeff:      0.365D-03-0.675D-03-0.225D-02 0.758D-02-0.432D-02-0.546D-02
 Coeff:     -0.587D-02 0.243D-01 0.147D-01-0.237D-01-0.708D-01 0.218D-01
 Coeff:      0.381D-01 0.107D+00 0.470D-01-0.865D-01-0.499D+00-0.630D+00
 Coeff:     -0.617D-01 0.213D+01
 Gap=     0.132 Goal=   None    Shift=    0.500
 Gap=     0.151 Goal=   None    Shift=    0.500
 RMSDP=8.34D-06 MaxDP=5.66D-04 DE=-2.42D-07 OVMax= 2.26D-04

 Cycle  25  Pass 1  IDiag  1:
 RMSU=  5.09D-07    CP:  1.00D+00  2.81D+00  2.69D+00  2.10D+00
 E= -3081.72213584795     Delta-E=       -0.000000132901 Rises=F Damp=F
 DIIS: error= 4.31D-06 at cycle  25 NSaved=  20.
 NSaved=20 IEnMin=20 EnMin= -3081.72213584795     IErMin=20 ErrMin= 4.31D-06
 ErrMax= 4.31D-06  0.00D+00 EMaxC= 1.00D+00 BMatC= 9.85D-08 BMatP= 1.92D-07
 IDIUse=1 WtCom= 1.00D+00 WtEn= 0.00D+00
 Coeff-Com: -0.723D-03-0.436D-03 0.483D-02 0.501D-03-0.648D-02-0.324D-02
 Coeff-Com: -0.224D-02 0.217D-01 0.705D-02-0.481D-01-0.136D-01 0.673D-02
 Coeff-Com:  0.946D-01 0.321D-01-0.730D-01-0.147D+00-0.416D+00-0.286D+00
 Coeff-Com:  0.210D+00 0.162D+01
 Coeff:     -0.723D-03-0.436D-03 0.483D-02 0.501D-03-0.648D-02-0.324D-02
 Coeff:     -0.224D-02 0.217D-01 0.705D-02-0.481D-01-0.136D-01 0.673D-02
 Coeff:      0.946D-01 0.321D-01-0.730D-01-0.147D+00-0.416D+00-0.286D+00
 Coeff:      0.210D+00 0.162D+01
 Gap=     0.132 Goal=   None    Shift=    0.500
 Gap=     0.151 Goal=   None    Shift=    0.500
 RMSDP=6.35D-06 MaxDP=4.49D-04 DE=-1.33D-07 OVMax= 1.70D-04

 Cycle  26  Pass 1  IDiag  1:
 RMSU=  2.72D-06    CP:  1.00D+00  3.00D+00  3.00D+00  3.00D+00  1.92D+00
 E= -3081.72213592077     Delta-E=       -0.000000072820 Rises=F Damp=F
 DIIS: error= 3.15D-06 at cycle  26 NSaved=  20.
 NSaved=20 IEnMin=20 EnMin= -3081.72213592077     IErMin=20 ErrMin= 3.15D-06
 ErrMax= 3.15D-06  0.00D+00 EMaxC= 1.00D+00 BMatC= 5.47D-08 BMatP= 9.85D-08
 IDIUse=1 WtCom= 1.00D+00 WtEn= 0.00D+00
 Coeff-Com:  0.159D-02-0.470D-02 0.368D-02 0.918D-03 0.609D-02-0.164D-01
 Coeff-Com:  0.540D-02 0.478D-03 0.303D-01-0.262D-01-0.386D-01-0.167D-01
 Coeff-Com:  0.866D-01 0.905D-02-0.182D-01-0.244D-01-0.138D+00-0.958D+00
 Coeff-Com:  0.115D+00 0.198D+01
 Coeff:      0.159D-02-0.470D-02 0.368D-02 0.918D-03 0.609D-02-0.164D-01
 Coeff:      0.540D-02 0.478D-03 0.303D-01-0.262D-01-0.386D-01-0.167D-01
 Coeff:      0.866D-01 0.905D-02-0.182D-01-0.244D-01-0.138D+00-0.958D+00
 Coeff:      0.115D+00 0.198D+01
 Gap=     0.132 Goal=   None    Shift=    0.500
 Gap=     0.151 Goal=   None    Shift=    0.500
 RMSDP=4.85D-06 MaxDP=3.49D-04 DE=-7.28D-08 OVMax= 1.27D-04

 Cycle  27  Pass 1  IDiag  1:
 RMSU=  4.74D-07    CP:  1.00D+00  3.00D+00  3.00D+00  3.00D+00  2.77D+00
                    CP:  2.75D+00
 E= -3081.72213596126     Delta-E=       -0.000000040495 Rises=F Damp=F
 DIIS: error= 2.34D-06 at cycle  27 NSaved=  20.
 NSaved=20 IEnMin=20 EnMin= -3081.72213596126     IErMin=20 ErrMin= 2.34D-06
 ErrMax= 2.34D-06  0.00D+00 EMaxC= 1.00D+00 BMatC= 2.94D-08 BMatP= 5.47D-08
 IDIUse=1 WtCom= 1.00D+00 WtEn= 0.00D+00
 Coeff-Com: -0.185D-02 0.334D-02 0.177D-02 0.147D-02-0.868D-02-0.394D-02
 Coeff-Com: -0.693D-02 0.415D-01-0.587D-02-0.212D-01-0.641D-01 0.264D-01
 Coeff-Com:  0.353D-01 0.248D-01 0.995D-01-0.223D-01-0.403D+00-0.103D+01
 Coeff-Com:  0.655D+00 0.168D+01
 Coeff:     -0.185D-02 0.334D-02 0.177D-02 0.147D-02-0.868D-02-0.394D-02
 Coeff:     -0.693D-02 0.415D-01-0.587D-02-0.212D-01-0.641D-01 0.264D-01
 Coeff:      0.353D-01 0.248D-01 0.995D-01-0.223D-01-0.403D+00-0.103D+01
 Coeff:      0.655D+00 0.168D+01
 Gap=     0.132 Goal=   None    Shift=    0.500
 Gap=     0.151 Goal=   None    Shift=    0.500
 RMSDP=3.69D-06 MaxDP=2.70D-04 DE=-4.05D-08 OVMax= 9.57D-05

 Cycle  28  Pass 1  IDiag  1:
 RMSU=  2.98D-06    CP:  1.00D+00  3.00D+00  3.00D+00  3.00D+00  3.00D+00
                    CP:  3.00D+00  1.68D+00
 E= -3081.72213598374     Delta-E=       -0.000000022478 Rises=F Damp=F
 DIIS: error= 1.75D-06 at cycle  28 NSaved=  20.
 NSaved=20 IEnMin=20 EnMin= -3081.72213598374     IErMin=20 ErrMin= 1.75D-06
 ErrMax= 1.75D-06  0.00D+00 EMaxC= 1.00D+00 BMatC= 1.64D-08 BMatP= 2.94D-08
 IDIUse=1 WtCom= 1.00D+00 WtEn= 0.00D+00
 Coeff-Com:  0.110D-02 0.470D-03 0.134D-03-0.660D-02-0.169D-02 0.595D-03
 Coeff-Com:  0.225D-01-0.147D-02-0.157D-01-0.316D-01-0.245D-01 0.235D-01
 Coeff-Com:  0.626D-01 0.148D+00 0.935D-02-0.143D+00-0.991D+00-0.224D+00
 Coeff-Com:  0.908D+00 0.126D+01
 Coeff:      0.110D-02 0.470D-03 0.134D-03-0.660D-02-0.169D-02 0.595D-03
 Coeff:      0.225D-01-0.147D-02-0.157D-01-0.316D-01-0.245D-01 0.235D-01
 Coeff:      0.626D-01 0.148D+00 0.935D-02-0.143D+00-0.991D+00-0.224D+00
 Coeff:      0.908D+00 0.126D+01
 Gap=     0.132 Goal=   None    Shift=    0.500
 Gap=     0.151 Goal=   None    Shift=    0.500
 RMSDP=2.82D-06 MaxDP=2.12D-04 DE=-2.25D-08 OVMax= 7.19D-05

 Cycle  29  Pass 1  IDiag  1:
 RMSU=  1.26D-07    CP:  1.00D+00  3.00D+00  3.00D+00  3.00D+00  3.00D+00
                    CP:  3.00D+00  2.34D+00  1.93D+00
 E= -3081.72213599626     Delta-E=       -0.000000012524 Rises=F Damp=F
 DIIS: error= 1.29D-06 at cycle  29 NSaved=  20.
 NSaved=20 IEnMin=20 EnMin= -3081.72213599626     IErMin=20 ErrMin= 1.29D-06
 ErrMax= 1.29D-06  0.00D+00 EMaxC= 1.00D+00 BMatC= 8.72D-09 BMatP= 1.64D-08
 IDIUse=1 WtCom= 1.00D+00 WtEn= 0.00D+00
 Coeff-Com:  0.878D-03 0.240D-03-0.865D-03-0.238D-02-0.109D-02-0.181D-02
 Coeff-Com:  0.137D-01-0.427D-03 0.233D-01-0.704D-01-0.237D-01-0.257D-01
 Coeff-Com:  0.145D+00 0.103D+00 0.175D+00-0.563D+00-0.605D+00-0.198D-01
 Coeff-Com:  0.148D+00 0.171D+01
 Coeff:      0.878D-03 0.240D-03-0.865D-03-0.238D-02-0.109D-02-0.181D-02
 Coeff:      0.137D-01-0.427D-03 0.233D-01-0.704D-01-0.237D-01-0.257D-01
 Coeff:      0.145D+00 0.103D+00 0.175D+00-0.563D+00-0.605D+00-0.198D-01
 Coeff:      0.148D+00 0.171D+01
 Gap=     0.132 Goal=   None    Shift=    0.500
 Gap=     0.151 Goal=   None    Shift=    0.500
 RMSDP=2.15D-06 MaxDP=1.66D-04 DE=-1.25D-08 OVMax= 5.46D-05

 Cycle  30  Pass 1  IDiag  1:
 RMSU=  6.40D-08    CP:  1.00D+00  3.00D+00  3.00D+00  3.00D+00  3.00D+00
                    CP:  3.00D+00  2.85D+00  2.64D+00  1.88D+00
 E= -3081.72213600332     Delta-E=       -0.000000007057 Rises=F Damp=F
 DIIS: error= 9.57D-07 at cycle  30 NSaved=  20.
 NSaved=20 IEnMin=20 EnMin= -3081.72213600332     IErMin=20 ErrMin= 9.57D-07
 ErrMax= 9.57D-07  0.00D+00 EMaxC= 1.00D+00 BMatC= 4.73D-09 BMatP= 8.72D-09
 IDIUse=1 WtCom= 1.00D+00 WtEn= 0.00D+00
 Coeff-Com:  0.170D-03 0.107D-02 0.113D-03-0.413D-03-0.117D-01 0.112D-01
 Coeff-Com:  0.608D-02 0.337D-01-0.457D-01-0.322D-01-0.634D-01 0.538D-01
 Coeff-Com:  0.103D+00 0.233D+00-0.153D+00-0.452D+00-0.337D+00-0.240D+00
 Coeff-Com:  0.199D+00 0.170D+01
 Coeff:      0.170D-03 0.107D-02 0.113D-03-0.413D-03-0.117D-01 0.112D-01
 Coeff:      0.608D-02 0.337D-01-0.457D-01-0.322D-01-0.634D-01 0.538D-01
 Coeff:      0.103D+00 0.233D+00-0.153D+00-0.452D+00-0.337D+00-0.240D+00
 Coeff:      0.199D+00 0.170D+01
 Gap=     0.132 Goal=   None    Shift=    0.500
 Gap=     0.151 Goal=   None    Shift=    0.500
 RMSDP=1.64D-06 MaxDP=1.28D-04 DE=-7.06D-09 OVMax= 4.12D-05

 Cycle  31  Pass 1  IDiag  1:
 RMSU=  5.63D-07    CP:  1.00D+00  3.00D+00  3.00D+00  3.00D+00  3.00D+00
                    CP:  3.00D+00  3.00D+00  3.00D+00  2.61D+00  2.16D+00
 E= -3081.72213600736     Delta-E=       -0.000000004035 Rises=F Damp=F
 DIIS: error= 7.18D-07 at cycle  31 NSaved=  20.
 NSaved=20 IEnMin=20 EnMin= -3081.72213600736     IErMin=20 ErrMin= 7.18D-07
 ErrMax= 7.18D-07  0.00D+00 EMaxC= 1.00D+00 BMatC= 2.59D-09 BMatP= 4.73D-09
 IDIUse=1 WtCom= 1.00D+00 WtEn= 0.00D+00
 Coeff-Com:  0.417D-03 0.927D-03-0.293D-03-0.674D-02 0.513D-02 0.570D-02
 Coeff-Com:  0.149D-01-0.154D-01-0.200D-01-0.401D-01 0.619D-02 0.614D-01
 Coeff-Com:  0.118D+00-0.506D-02-0.180D+00-0.251D+00-0.133D+00-0.560D+00
 Coeff-Com:  0.490D+00 0.151D+01
 Coeff:      0.417D-03 0.927D-03-0.293D-03-0.674D-02 0.513D-02 0.570D-02
 Coeff:      0.149D-01-0.154D-01-0.200D-01-0.401D-01 0.619D-02 0.614D-01
 Coeff:      0.118D+00-0.506D-02-0.180D+00-0.251D+00-0.133D+00-0.560D+00
 Coeff:      0.490D+00 0.151D+01
 Gap=     0.132 Goal=   None    Shift=    0.500
 Gap=     0.151 Goal=   None    Shift=    0.500
 RMSDP=1.25D-06 MaxDP=9.97D-05 DE=-4.04D-09 OVMax= 3.09D-05

 Cycle  32  Pass 1  IDiag  1:
 RMSU=  1.68D-07    CP:  1.00D+00  3.00D+00  3.00D+00  3.00D+00  3.00D+00
                    CP:  3.00D+00  3.00D+00  3.00D+00  3.00D+00  3.00D+00
                    CP:  3.00D+00
 E= -3081.72213600952     Delta-E=       -0.000000002165 Rises=F Damp=F
 DIIS: error= 5.38D-07 at cycle  32 NSaved=  20.
 NSaved=20 IEnMin=20 EnMin= -3081.72213600952     IErMin=20 ErrMin= 5.38D-07
 ErrMax= 5.38D-07  0.00D+00 EMaxC= 1.00D+00 BMatC= 1.44D-09 BMatP= 2.59D-09
 IDIUse=1 WtCom= 1.00D+00 WtEn= 0.00D+00
 Coeff-Com:  0.555D-03-0.109D-02 0.167D-02-0.193D-02 0.673D-03-0.546D-02
 Coeff-Com:  0.176D-01-0.280D-03-0.114D-01-0.185D-01 0.541D-02-0.485D-01
 Coeff-Com:  0.379D-01 0.136D+00 0.925D-02 0.157D-01-0.760D+00-0.673D+00
 Coeff-Com:  0.589D+00 0.171D+01
 Coeff:      0.555D-03-0.109D-02 0.167D-02-0.193D-02 0.673D-03-0.546D-02
 Coeff:      0.176D-01-0.280D-03-0.114D-01-0.185D-01 0.541D-02-0.485D-01
 Coeff:      0.379D-01 0.136D+00 0.925D-02 0.157D-01-0.760D+00-0.673D+00
 Coeff:      0.589D+00 0.171D+01
 Gap=     0.132 Goal=   None    Shift=    0.500
 Gap=     0.151 Goal=   None    Shift=    0.500
 RMSDP=9.45D-07 MaxDP=7.69D-05 DE=-2.16D-09 OVMax= 2.32D-05

 Cycle  33  Pass 1  IDiag  1:
 RMSU=  7.48D-07    CP:  1.00D+00  3.00D+00  3.00D+00  3.00D+00  3.00D+00
                    CP:  3.00D+00  3.00D+00  3.00D+00  3.00D+00  3.00D+00
                    CP:  3.00D+00  3.00D+00
 E= -3081.72213601073     Delta-E=       -0.000000001212 Rises=F Damp=F
 DIIS: error= 4.16D-07 at cycle  33 NSaved=  20.
 NSaved=20 IEnMin=20 EnMin= -3081.72213601073     IErMin=20 ErrMin= 4.16D-07
 ErrMax= 4.16D-07  0.00D+00 EMaxC= 1.00D+00 BMatC= 8.14D-10 BMatP= 1.44D-09
 IDIUse=1 WtCom= 1.00D+00 WtEn= 0.00D+00
 Coeff-Com: -0.155D-02 0.471D-02-0.160D-02-0.240D-02-0.106D-01 0.131D-01
 Coeff-Com:  0.898D-02 0.350D-02 0.805D-02-0.114D-01-0.663D-01-0.630D-01
 Coeff-Com:  0.105D+00 0.129D+00 0.621D-01-0.114D+00-0.796D+00-0.289D+00
 Coeff-Com:  0.313D+00 0.171D+01
 Coeff:     -0.155D-02 0.471D-02-0.160D-02-0.240D-02-0.106D-01 0.131D-01
 Coeff:      0.898D-02 0.350D-02 0.805D-02-0.114D-01-0.663D-01-0.630D-01
 Coeff:      0.105D+00 0.129D+00 0.621D-01-0.114D+00-0.796D+00-0.289D+00
 Coeff:      0.313D+00 0.171D+01
 Gap=     0.132 Goal=   None    Shift=    0.500
 Gap=     0.151 Goal=   None    Shift=    0.500
 RMSDP=7.22D-07 MaxDP=5.90D-05 DE=-1.21D-09 OVMax= 1.75D-05

 Cycle  34  Pass 1  IDiag  1:
 RMSU=  2.34D-07    CP:  1.00D+00  3.00D+00  3.00D+00  3.00D+00  3.00D+00
                    CP:  3.00D+00  3.00D+00  3.00D+00  3.00D+00  3.00D+00
                    CP:  3.00D+00  3.00D+00  1.91D+00
 E= -3081.72213601144     Delta-E=       -0.000000000709 Rises=F Damp=F
 DIIS: error= 3.17D-07 at cycle  34 NSaved=  20.
 NSaved=20 IEnMin=20 EnMin= -3081.72213601144     IErMin=20 ErrMin= 3.17D-07
 ErrMax= 3.17D-07  0.00D+00 EMaxC= 1.00D+00 BMatC= 4.54D-10 BMatP= 8.14D-10
 IDIUse=1 WtCom= 1.00D+00 WtEn= 0.00D+00
 Coeff-Com: -0.275D-02 0.484D-02 0.859D-03 0.976D-02-0.240D-01-0.428D-02
 Coeff-Com: -0.324D-02 0.333D-01 0.961D-02 0.876D-01-0.114D+00-0.175D+00
 Coeff-Com:  0.178D-03-0.152D-01 0.544D+00 0.311D+00-0.653D+00-0.120D+01
 Coeff-Com: -0.115D+01 0.334D+01
 Coeff:     -0.275D-02 0.484D-02 0.859D-03 0.976D-02-0.240D-01-0.428D-02
 Coeff:     -0.324D-02 0.333D-01 0.961D-02 0.876D-01-0.114D+00-0.175D+00
 Coeff:      0.178D-03-0.152D-01 0.544D+00 0.311D+00-0.653D+00-0.120D+01
 Coeff:     -0.115D+01 0.334D+01
 Gap=     0.132 Goal=   None    Shift=    0.500
 Gap=     0.151 Goal=   None    Shift=    0.500
 RMSDP=5.53D-07 MaxDP=4.58D-05 DE=-7.09D-10 OVMax= 1.33D-05

 Cycle  35  Pass 1  IDiag  1:
 RMSU=  1.60D-08    CP:  1.00D+00  3.00D+00  3.00D+00  3.00D+00  3.00D+00
                    CP:  3.00D+00  3.00D+00  3.00D+00  3.00D+00  3.00D+00
                    CP:  3.00D+00  3.00D+00  2.60D+00  1.76D+00
 E= -3081.72213601186     Delta-E=       -0.000000000422 Rises=F Damp=F
 DIIS: error= 2.41D-07 at cycle  35 NSaved=  20.
 NSaved=20 IEnMin=20 EnMin= -3081.72213601186     IErMin=20 ErrMin= 2.41D-07
 ErrMax= 2.41D-07  0.00D+00 EMaxC= 1.00D+00 BMatC= 2.54D-10 BMatP= 4.54D-10
 IDIUse=1 WtCom= 1.00D+00 WtEn= 0.00D+00
 Coeff-Com:  0.116D-02-0.182D-03 0.176D-02-0.105D-01-0.147D-02 0.689D-02
 Coeff-Com:  0.215D-01 0.106D-01 0.884D-02-0.885D-01-0.494D-01 0.282D-01
 Coeff-Com:  0.767D-01 0.137D+00 0.106D+00-0.273D+00-0.463D+00-0.892D+00
 Coeff-Com:  0.632D+00 0.175D+01
 Coeff:      0.116D-02-0.182D-03 0.176D-02-0.105D-01-0.147D-02 0.689D-02
 Coeff:      0.215D-01 0.106D-01 0.884D-02-0.885D-01-0.494D-01 0.282D-01
 Coeff:      0.767D-01 0.137D+00 0.106D+00-0.273D+00-0.463D+00-0.892D+00
 Coeff:      0.632D+00 0.175D+01
 Gap=     0.132 Goal=   None    Shift=    0.500
 Gap=     0.151 Goal=   None    Shift=    0.500
 RMSDP=4.20D-07 MaxDP=3.50D-05 DE=-4.22D-10 OVMax= 1.00D-05

 Cycle  36  Pass 1  IDiag  1:
 RMSU=  9.91D-08    CP:  1.00D+00  3.00D+00  3.00D+00  3.00D+00  3.00D+00
                    CP:  3.00D+00  3.00D+00  3.00D+00  3.00D+00  3.00D+00
                    CP:  3.00D+00  3.00D+00  3.00D+00  2.35D+00  1.72D+00
 E= -3081.72213601207     Delta-E=       -0.000000000210 Rises=F Damp=F
 DIIS: error= 1.85D-07 at cycle  36 NSaved=  20.
 NSaved=20 IEnMin=20 EnMin= -3081.72213601207     IErMin=20 ErrMin= 1.85D-07
 ErrMax= 1.85D-07  0.00D+00 EMaxC= 1.00D+00 BMatC= 1.46D-10 BMatP= 2.54D-10
 IDIUse=1 WtCom= 1.00D+00 WtEn= 0.00D+00
 Coeff-Com:  0.105D-02 0.184D-03-0.338D-02-0.201D-02 0.266D-02 0.616D-02
 Coeff-Com:  0.127D-01-0.616D-02-0.322D-01-0.617D-02-0.127D-02 0.687D-01
 Coeff-Com: -0.114D+00 0.571D-01 0.990D-01 0.592D-01-0.539D+00-0.847D+00
 Coeff-Com:  0.568D+00 0.168D+01
 Coeff:      0.105D-02 0.184D-03-0.338D-02-0.201D-02 0.266D-02 0.616D-02
 Coeff:      0.127D-01-0.616D-02-0.322D-01-0.617D-02-0.127D-02 0.687D-01
 Coeff:     -0.114D+00 0.571D-01 0.990D-01 0.592D-01-0.539D+00-0.847D+00
 Coeff:      0.568D+00 0.168D+01
 Gap=     0.132 Goal=   None    Shift=    0.500
 Gap=     0.151 Goal=   None    Shift=    0.500
 RMSDP=3.21D-07 MaxDP=2.68D-05 DE=-2.10D-10 OVMax= 7.63D-06

 Cycle  37  Pass 1  IDiag  1:
 RMSU=  1.06D-07    CP:  1.00D+00  3.00D+00  3.00D+00  3.00D+00  3.00D+00
                    CP:  3.00D+00  3.00D+00  3.00D+00  3.00D+00  3.00D+00
                    CP:  3.00D+00  3.00D+00  3.00D+00  2.80D+00  2.65D+00
                    CP:  3.00D+00
 E= -3081.72213601227     Delta-E=       -0.000000000200 Rises=F Damp=F
 DIIS: error= 1.40D-07 at cycle  37 NSaved=  20.
 NSaved=20 IEnMin=20 EnMin= -3081.72213601227     IErMin=20 ErrMin= 1.40D-07
 ErrMax= 1.40D-07  0.00D+00 EMaxC= 1.00D+00 BMatC= 8.48D-11 BMatP= 1.46D-10
 IDIUse=1 WtCom= 1.00D+00 WtEn= 0.00D+00
 Coeff-Com:  0.397D-03-0.345D-03-0.456D-04-0.753D-03-0.292D-02 0.473D-03
 Coeff-Com:  0.549D-02 0.132D-01-0.130D-01-0.359D-02-0.974D-02-0.705D-01
 Coeff-Com: -0.106D-01 0.135D+00 0.123D+00 0.384D-01-0.396D+00-0.120D+01
 Coeff-Com:  0.445D+00 0.195D+01
 Coeff:      0.397D-03-0.345D-03-0.456D-04-0.753D-03-0.292D-02 0.473D-03
 Coeff:      0.549D-02 0.132D-01-0.130D-01-0.359D-02-0.974D-02-0.705D-01
 Coeff:     -0.106D-01 0.135D+00 0.123D+00 0.384D-01-0.396D+00-0.120D+01
 Coeff:      0.445D+00 0.195D+01
 Gap=     0.132 Goal=   None    Shift=    0.500
 Gap=     0.151 Goal=   None    Shift=    0.500
 RMSDP=2.46D-07 MaxDP=2.06D-05 DE=-2.00D-10 OVMax= 5.88D-06

 Cycle  38  Pass 1  IDiag  1:
 RMSU=  5.62D-08    CP:  1.00D+00  3.00D+00  3.00D+00  3.00D+00  3.00D+00
                    CP:  3.00D+00  3.00D+00  3.00D+00  3.00D+00  3.00D+00
                    CP:  3.00D+00  3.00D+00  3.00D+00  3.00D+00  3.00D+00
                    CP:  3.00D+00  3.00D+00
 E= -3081.72213601233     Delta-E=       -0.000000000060 Rises=F Damp=F
 DIIS: error= 1.05D-07 at cycle  38 NSaved=  20.
 NSaved=20 IEnMin=20 EnMin= -3081.72213601233     IErMin=20 ErrMin= 1.05D-07
 ErrMax= 1.05D-07  0.00D+00 EMaxC= 1.00D+00 BMatC= 4.55D-11 BMatP= 8.48D-11
 IDIUse=1 WtCom= 1.00D+00 WtEn= 0.00D+00
 Coeff-Com:  0.197D-02 0.277D-03-0.360D-02-0.640D-02-0.362D-02 0.165D-02
 Coeff-Com:  0.323D-01 0.533D-02-0.367D-03-0.333D-01-0.774D-01-0.795D-01
 Coeff-Com:  0.122D+00 0.181D+00 0.224D+00-0.147D+00-0.125D+01-0.168D+00
 Coeff-Com:  0.100D+01 0.120D+01
 Coeff:      0.197D-02 0.277D-03-0.360D-02-0.640D-02-0.362D-02 0.165D-02
 Coeff:      0.323D-01 0.533D-02-0.367D-03-0.333D-01-0.774D-01-0.795D-01
 Coeff:      0.122D+00 0.181D+00 0.224D+00-0.147D+00-0.125D+01-0.168D+00
 Coeff:      0.100D+01 0.120D+01
 Gap=     0.132 Goal=   None    Shift=    0.500
 Gap=     0.151 Goal=   None    Shift=    0.500
 RMSDP=1.88D-07 MaxDP=1.56D-05 DE=-6.00D-11 OVMax= 4.41D-06

 Cycle  39  Pass 1  IDiag  1:
 RMSU=  1.50D-07    CP:  1.00D+00  3.00D+00  3.00D+00  3.00D+00  3.00D+00
                    CP:  3.00D+00  3.00D+00  3.00D+00  3.00D+00  3.00D+00
                    CP:  3.00D+00  3.00D+00  3.00D+00  3.00D+00  3.00D+00
                    CP:  3.00D+00  3.00D+00  2.98D+00
 E= -3081.72213601229     Delta-E=        0.000000000049 Rises=F Damp=F
 DIIS: error= 8.09D-08 at cycle  39 NSaved=  20.
 NSaved=20 IEnMin=19 EnMin= -3081.72213601233     IErMin=20 ErrMin= 8.09D-08
 ErrMax= 8.09D-08  0.00D+00 EMaxC= 1.00D+00 BMatC= 2.53D-11 BMatP= 4.55D-11
 IDIUse=1 WtCom= 1.00D+00 WtEn= 0.00D+00
 Coeff-Com:  0.715D-03-0.362D-02 0.544D-02-0.219D-02 0.198D-02-0.100D-01
 Coeff-Com: -0.591D-02 0.261D-01-0.155D-01 0.864D-01-0.855D-01-0.125D+00
 Coeff-Com: -0.832D-01 0.148D+00 0.574D+00-0.292D+00-0.683D+00-0.598D+00
 Coeff-Com: -0.108D+00 0.217D+01
 Coeff:      0.715D-03-0.362D-02 0.544D-02-0.219D-02 0.198D-02-0.100D-01
 Coeff:     -0.591D-02 0.261D-01-0.155D-01 0.864D-01-0.855D-01-0.125D+00
 Coeff:     -0.832D-01 0.148D+00 0.574D+00-0.292D+00-0.683D+00-0.598D+00
 Coeff:     -0.108D+00 0.217D+01
 Gap=     0.132 Goal=   None    Shift=    0.500
 Gap=     0.151 Goal=   None    Shift=    0.500
 RMSDP=1.43D-07 MaxDP=1.19D-05 DE= 4.91D-11 OVMax= 3.35D-06

 Cycle  40  Pass 1  IDiag  1:
 RMSU=  8.35D-08    CP:  1.00D+00  3.00D+00  3.00D+00  3.00D+00  3.00D+00
                    CP:  3.00D+00  3.00D+00  3.00D+00  3.00D+00  3.00D+00
                    CP:  3.00D+00  3.00D+00  3.00D+00  3.00D+00  3.00D+00
                    CP:  3.00D+00  3.00D+00  3.00D+00  1.76D+00
 E= -3081.72213601227     Delta-E=        0.000000000014 Rises=F Damp=F
 DIIS: error= 6.18D-08 at cycle  40 NSaved=  20.
 NSaved=20 IEnMin=18 EnMin= -3081.72213601233     IErMin=20 ErrMin= 6.18D-08
 ErrMax= 6.18D-08  0.00D+00 EMaxC= 1.00D+00 BMatC= 1.50D-11 BMatP= 2.53D-11
 IDIUse=1 WtCom= 1.00D+00 WtEn= 0.00D+00
 Coeff-Com: -0.266D-02 0.603D-02-0.673D-04-0.750D-05-0.198D-01-0.455D-02
 Coeff-Com:  0.280D-01 0.944D-02 0.727D-01-0.705D-01-0.131D+00-0.865D-01
 Coeff-Com:  0.834D-01 0.459D+00 0.434D-01-0.530D+00-0.674D+00-0.391D+00
 Coeff-Com:  0.955D+00 0.125D+01
 Coeff:     -0.266D-02 0.603D-02-0.673D-04-0.750D-05-0.198D-01-0.455D-02
 Coeff:      0.280D-01 0.944D-02 0.727D-01-0.705D-01-0.131D+00-0.865D-01
 Coeff:      0.834D-01 0.459D+00 0.434D-01-0.530D+00-0.674D+00-0.391D+00
 Coeff:      0.955D+00 0.125D+01
 Gap=     0.132 Goal=   None    Shift=    0.500
 Gap=     0.151 Goal=   None    Shift=    0.500
 RMSDP=1.09D-07 MaxDP=9.05D-06 DE= 1.36D-11 OVMax= 2.56D-06

 Cycle  41  Pass 1  IDiag  1:
 Restarting incremental Fock formation.
 E= -3081.72213601234     Delta-E=       -0.000000000067 Rises=F Damp=F
 DIIS: error= 4.70D-08 at cycle  41 NSaved=  20.
 NSaved=20 IEnMin=20 EnMin= -3081.72213601234     IErMin=20 ErrMin= 4.70D-08
 ErrMax= 4.70D-08  0.00D+00 EMaxC= 1.00D+00 BMatC= 8.62D-12 BMatP= 1.50D-11
 IDIUse=1 WtCom= 1.00D+00 WtEn= 0.00D+00
 Coeff-Com:  0.154D-02 0.101D-02-0.318D-02-0.142D-01 0.160D-02 0.175D-01
 Coeff-Com:  0.248D-01 0.893D-02-0.395D-01-0.532D-01-0.137D-01 0.238D-01
 Coeff-Com:  0.567D-01 0.155D+00-0.761D-01-0.266D+00-0.269D+00-0.374D+00
 Coeff-Com:  0.808D-01 0.174D+01
 Coeff:      0.154D-02 0.101D-02-0.318D-02-0.142D-01 0.160D-02 0.175D-01
 Coeff:      0.248D-01 0.893D-02-0.395D-01-0.532D-01-0.137D-01 0.238D-01
 Coeff:      0.567D-01 0.155D+00-0.761D-01-0.266D+00-0.269D+00-0.374D+00
 Coeff:      0.808D-01 0.174D+01
 Gap=     0.132 Goal=   None    Shift=    0.500
 Gap=     0.151 Goal=   None    Shift=    0.500
 RMSDP=8.38D-08 MaxDP=6.92D-06 DE=-6.73D-11 OVMax= 1.94D-06

 Cycle  42  Pass 1  IDiag  1:
 RMSU=  8.35D-08    CP:  1.00D+00
 E= -3081.72213601243     Delta-E=       -0.000000000095 Rises=F Damp=F
 DIIS: error= 3.54D-08 at cycle  42 NSaved=  20.
 NSaved=20 IEnMin=20 EnMin= -3081.72213601243     IErMin=20 ErrMin= 3.54D-08
 ErrMax= 3.54D-08  0.00D+00 EMaxC= 1.00D+00 BMatC= 4.83D-12 BMatP= 8.62D-12
 IDIUse=1 WtCom= 1.00D+00 WtEn= 0.00D+00
 Coeff-Com:  0.106D-02-0.254D-02-0.209D-02 0.122D-02 0.247D-02 0.142D-01
 Coeff-Com: -0.220D-01-0.777D-02 0.106D-01 0.370D-01-0.458D-02-0.179D+00
 Coeff-Com:  0.144D+00 0.162D+00 0.165D-01-0.106D+00-0.677D+00-0.699D+00
 Coeff-Com:  0.798D+00 0.151D+01
 Coeff:      0.106D-02-0.254D-02-0.209D-02 0.122D-02 0.247D-02 0.142D-01
 Coeff:     -0.220D-01-0.777D-02 0.106D-01 0.370D-01-0.458D-02-0.179D+00
 Coeff:      0.144D+00 0.162D+00 0.165D-01-0.106D+00-0.677D+00-0.699D+00
 Coeff:      0.798D+00 0.151D+01
 Gap=     0.132 Goal=   None    Shift=    0.500
 Gap=     0.151 Goal=   None    Shift=    0.500
 RMSDP=6.43D-08 MaxDP=5.29D-06 DE=-9.46D-11 OVMax= 1.48D-06

 Cycle  43  Pass 1  IDiag  1:
 RMSU=  1.97D-09    CP:  1.00D+00  1.77D+00
 E= -3081.72213601233     Delta-E=        0.000000000107 Rises=F Damp=F
 DIIS: error= 2.63D-08 at cycle  43 NSaved=  20.
 NSaved=20 IEnMin=19 EnMin= -3081.72213601243     IErMin=20 ErrMin= 2.63D-08
 ErrMax= 2.63D-08  0.00D+00 EMaxC= 1.00D+00 BMatC= 2.68D-12 BMatP= 4.83D-12
 IDIUse=1 WtCom= 1.00D+00 WtEn= 0.00D+00
 Coeff-Com: -0.315D-03 0.201D-02-0.210D-02-0.106D-02 0.418D-03-0.172D-01
 Coeff-Com:  0.117D-01 0.313D-01 0.257D-01-0.347D-01-0.176D+00 0.441D-01
 Coeff-Com:  0.229D+00 0.193D+00-0.326D-01-0.359D+00-0.765D+00-0.314D+00
 Coeff-Com:  0.411D+00 0.175D+01
 Coeff:     -0.315D-03 0.201D-02-0.210D-02-0.106D-02 0.418D-03-0.172D-01
 Coeff:      0.117D-01 0.313D-01 0.257D-01-0.347D-01-0.176D+00 0.441D-01
 Coeff:      0.229D+00 0.193D+00-0.326D-01-0.359D+00-0.765D+00-0.314D+00
 Coeff:      0.411D+00 0.175D+01
 Gap=     0.132 Goal=   None    Shift=    0.500
 Gap=     0.151 Goal=   None    Shift=    0.500
 RMSDP=4.91D-08 MaxDP=4.01D-06 DE= 1.07D-10 OVMax= 1.11D-06

 Cycle  44  Pass 1  IDiag  1:
 RMSU=  1.18D-09    CP:  1.00D+00  2.35D+00  1.71D+00
 E= -3081.72213601234     Delta-E=       -0.000000000015 Rises=F Damp=F
 DIIS: error= 1.96D-08 at cycle  44 NSaved=  20.
 NSaved=20 IEnMin=18 EnMin= -3081.72213601243     IErMin=20 ErrMin= 1.96D-08
 ErrMax= 1.96D-08  0.00D+00 EMaxC= 1.00D+00 BMatC= 1.50D-12 BMatP= 2.68D-12
 IDIUse=1 WtCom= 1.00D+00 WtEn= 0.00D+00
 Large coefficients: NSaved= 20 BigCof=    0.00 CofMax=   10.00 Det=-6.73D-15
 Inversion failed.  Reducing to 19 matrices.
 Large coefficients: NSaved= 19 BigCof=    0.00 CofMax=   10.00 Det=-7.40D-15
 Inversion failed.  Reducing to 18 matrices.
 Large coefficients: NSaved= 18 BigCof=    0.00 CofMax=   10.00 Det=-7.40D-15
 Inversion failed.  Reducing to 17 matrices.
 Large coefficients: NSaved= 17 BigCof=    0.00 CofMax=   10.00 Det=-8.12D-15
 Inversion failed.  Reducing to 16 matrices.
 Large coefficients: NSaved= 16 BigCof=    0.00 CofMax=   10.00 Det=-8.42D-15
 Inversion failed.  Reducing to 15 matrices.
 Coeff-Com: -0.595D-02 0.138D-01 0.592D-02-0.758D-02-0.685D-01-0.268D-01
 Coeff-Com:  0.106D+00 0.153D+00-0.225D-01-0.456D-01-0.307D+00-0.536D+00
 Coeff-Com: -0.104D+00 0.107D+00 0.174D+01
 Coeff:     -0.595D-02 0.138D-01 0.592D-02-0.758D-02-0.685D-01-0.268D-01
 Coeff:      0.106D+00 0.153D+00-0.225D-01-0.456D-01-0.307D+00-0.536D+00
 Coeff:     -0.104D+00 0.107D+00 0.174D+01
 Gap=     0.132 Goal=   None    Shift=    0.500
 Gap=     0.151 Goal=   None    Shift=    0.500
 RMSDP=3.75D-08 MaxDP=3.04D-06 DE=-1.46D-11 OVMax= 8.30D-07

 Cycle  45  Pass 1  IDiag  1:
 RMSU=  7.98D-10    CP:  1.00D+00  2.80D+00  2.20D+00  2.06D+00
 E= -3081.72213601244     Delta-E=       -0.000000000095 Rises=F Damp=F
 DIIS: error= 1.47D-08 at cycle  45 NSaved=  16.
 NSaved=16 IEnMin=16 EnMin= -3081.72213601244     IErMin=16 ErrMin= 1.47D-08
 ErrMax= 1.47D-08  0.00D+00 EMaxC= 1.00D+00 BMatC= 8.52D-13 BMatP= 1.50D-12
 IDIUse=1 WtCom= 1.00D+00 WtEn= 0.00D+00
 Large coefficients: NSaved= 16 BigCof=    0.00 CofMax=   10.00 Det=-5.99D-15
 Inversion failed.  Reducing to 15 matrices.
 Coeff-Com:  0.173D-02-0.233D-02 0.844D-02-0.124D-01-0.713D-01 0.212D-01
 Coeff-Com:  0.128D+00 0.302D-01 0.333D-01-0.170D+00-0.348D+00-0.767D-01
 Coeff-Com: -0.338D+00 0.464D+00 0.133D+01
 Coeff:      0.173D-02-0.233D-02 0.844D-02-0.124D-01-0.713D-01 0.212D-01
 Coeff:      0.128D+00 0.302D-01 0.333D-01-0.170D+00-0.348D+00-0.767D-01
 Coeff:     -0.338D+00 0.464D+00 0.133D+01
 Gap=     0.132 Goal=   None    Shift=    0.500
 Gap=     0.151 Goal=   None    Shift=    0.500
 RMSDP=2.86D-08 MaxDP=2.31D-06 DE=-9.55D-11 OVMax= 6.24D-07

 Cycle  46  Pass 1  IDiag  1:
 RMSU=  1.16D-08    CP:  1.00D+00  3.00D+00  2.80D+00  2.82D+00  1.82D+00
 E= -3081.72213601248     Delta-E=       -0.000000000039 Rises=F Damp=F
 DIIS: error= 1.09D-08 at cycle  46 NSaved=  16.
 NSaved=16 IEnMin=16 EnMin= -3081.72213601248     IErMin=16 ErrMin= 1.09D-08
 ErrMax= 1.09D-08  0.00D+00 EMaxC= 1.00D+00 BMatC= 4.85D-13 BMatP= 8.52D-13
 IDIUse=1 WtCom= 1.00D+00 WtEn= 0.00D+00
 Large coefficients: NSaved= 16 BigCof=    0.00 CofMax=   10.00 Det=-3.24D-15
 Inversion failed.  Reducing to 15 matrices.
 Coeff-Com: -0.755D-02 0.286D-01 0.696D-02-0.675D-01-0.382D-01 0.546D-01
 Coeff-Com:  0.656D-01 0.219D-01-0.823D-01 0.226D-01 0.695D-01-0.320D+00
 Coeff-Com: -0.976D+00 0.459D+00 0.176D+01
 Coeff:     -0.755D-02 0.286D-01 0.696D-02-0.675D-01-0.382D-01 0.546D-01
 Coeff:      0.656D-01 0.219D-01-0.823D-01 0.226D-01 0.695D-01-0.320D+00
 Coeff:     -0.976D+00 0.459D+00 0.176D+01
 Gap=     0.132 Goal=   None    Shift=    0.500
 Gap=     0.151 Goal=   None    Shift=    0.500
 RMSDP=2.20D-08 MaxDP=1.77D-06 DE=-3.91D-11 OVMax= 4.72D-07

 Cycle  47  Pass 1  IDiag  1:
 RMSU=  1.24D-09    CP:  1.00D+00  3.00D+00  3.00D+00  3.00D+00  2.61D+00
                    CP:  2.88D+00
 E= -3081.72213601239     Delta-E=        0.000000000083 Rises=F Damp=F
 DIIS: error= 8.20D-09 at cycle  47 NSaved=  16.
 NSaved=16 IEnMin=15 EnMin= -3081.72213601248     IErMin=16 ErrMin= 8.20D-09
 ErrMax= 8.20D-09  0.00D+00 EMaxC= 1.00D+00 BMatC= 2.66D-13 BMatP= 4.85D-13
 IDIUse=1 WtCom= 1.00D+00 WtEn= 0.00D+00
 Large coefficients: NSaved= 16 BigCof=    0.00 CofMax=   10.00 Det=-3.12D-15
 Inversion failed.  Reducing to 15 matrices.
 Coeff-Com:  0.154D-01-0.129D-01-0.196D-01-0.116D-01 0.299D-01 0.573D-01
 Coeff-Com: -0.114D+00-0.142D+00 0.239D+00 0.248D+00 0.129D+00-0.162D+01
 Coeff-Com: -0.799D-03 0.956D+00 0.124D+01
 Coeff:      0.154D-01-0.129D-01-0.196D-01-0.116D-01 0.299D-01 0.573D-01
 Coeff:     -0.114D+00-0.142D+00 0.239D+00 0.248D+00 0.129D+00-0.162D+01
 Coeff:     -0.799D-03 0.956D+00 0.124D+01
 Gap=     0.132 Goal=   None    Shift=    0.500
 Gap=     0.151 Goal=   None    Shift=    0.500
 RMSDP=1.67D-08 MaxDP=1.35D-06 DE= 8.28D-11 OVMax= 3.58D-07

 Cycle  48  Pass 1  IDiag  1:
 RMSU=  1.53D-08    CP:  1.00D+00  3.00D+00  3.00D+00  3.00D+00  3.00D+00
                    CP:  3.00D+00  1.95D+00
 E= -3081.72213601231     Delta-E=        0.000000000081 Rises=F Damp=F
 DIIS: error= 6.09D-09 at cycle  48 NSaved=  16.
 NSaved=16 IEnMin=14 EnMin= -3081.72213601248     IErMin=16 ErrMin= 6.09D-09
 ErrMax= 6.09D-09  0.00D+00 EMaxC= 1.00D+00 BMatC= 1.43D-13 BMatP= 2.66D-13
 IDIUse=1 WtCom= 1.00D+00 WtEn= 0.00D+00
 Large coefficients: NSaved= 16 BigCof=    0.00 CofMax=   10.00 Det=-1.52D-15
 Inversion failed.  Reducing to 15 matrices.
 Coeff-Com: -0.110D-01 0.412D-02 0.174D-01 0.356D-01 0.261D-01-0.166D+00
 Coeff-Com: -0.134D+00 0.220D+00 0.231D+00 0.285D+00-0.119D+01-0.112D+00
 Coeff-Com:  0.261D+00 0.897D-01 0.144D+01
 Coeff:     -0.110D-01 0.412D-02 0.174D-01 0.356D-01 0.261D-01-0.166D+00
 Coeff:     -0.134D+00 0.220D+00 0.231D+00 0.285D+00-0.119D+01-0.112D+00
 Coeff:      0.261D+00 0.897D-01 0.144D+01
 Gap=     0.132 Goal=   None    Shift=    0.500
 Gap=     0.151 Goal=   None    Shift=    0.500
 RMSDP=1.27D-08 MaxDP=1.01D-06 DE= 8.09D-11 OVMax= 2.68D-07

 Cycle  49  Pass 1  IDiag  1:
 RMSU=  3.90D-10    CP:  1.00D+00  3.00D+00  3.00D+00  3.00D+00  3.00D+00
                    CP:  3.00D+00  2.63D+00  1.82D+00
 E= -3081.72213601245     Delta-E=       -0.000000000143 Rises=F Damp=F
 DIIS: error= 4.45D-09 at cycle  49 NSaved=  16.
 NSaved=16 IEnMin=13 EnMin= -3081.72213601248     IErMin=16 ErrMin= 4.45D-09
 ErrMax= 4.45D-09  0.00D+00 EMaxC= 1.00D+00 BMatC= 8.10D-14 BMatP= 1.43D-13
 IDIUse=1 WtCom= 1.00D+00 WtEn= 0.00D+00
 Large coefficients: NSaved= 16 BigCof=    0.00 CofMax=   10.00 Det=-8.57D-16
 Inversion failed.  Reducing to 15 matrices.
 Coeff-Com: -0.106D-01 0.683D-02 0.278D-01 0.285D-02-0.678D-01-0.195D-01
 Coeff-Com:  0.689D-01 0.655D-01 0.541D-01-0.278D+00-0.436D-01-0.128D+00
 Coeff-Com: -0.537D+00 0.248D+00 0.161D+01
 Coeff:     -0.106D-01 0.683D-02 0.278D-01 0.285D-02-0.678D-01-0.195D-01
 Coeff:      0.689D-01 0.655D-01 0.541D-01-0.278D+00-0.436D-01-0.128D+00
 Coeff:     -0.537D+00 0.248D+00 0.161D+01
 Gap=     0.132 Goal=   None    Shift=    0.500
 Gap=     0.151 Goal=   None    Shift=    0.500
 RMSDP=9.63D-09 MaxDP=7.71D-07 DE=-1.43D-10 OVMax= 2.01D-07

 Error on total polarization charges =  0.03816
 SCF Done:  E(UB3LYP) =  -3081.72213601     A.U. after   49 cycles
            NFock= 49  Conv=0.96D-08     -V/T= 2.0056
 <Sx>= 0.0000 <Sy>= 0.0000 <Sz>= 1.0000 <S**2>= 2.0077 S= 1.0026
 <L.S>=  0.00000000000    
 KE= 3.064481566672D+03 PE=-1.613425914978D+04 EE= 5.620015223401D+03
 Annihilation of the first spin contaminant:
 S**2 before annihilation     2.0077,   after     2.0000
 Leave Link  502 at Sat Jun 15 10:15:39 2024, MaxMem= 30064771072 cpu:           34945.2 elap:             550.7
 (Enter /work/home/achvfzi98e/apprepo/gaussian/16-hy/scripts/../app/g16/l801.exe)
 DoSCS=F DFT=T ScalE2(SS,OS)=  1.000000  1.000000
 Range of M.O.s used for correlation:     1   676
 NBasis=   679 NAE=   125 NBE=   123 NFC=     0 NFV=     0
 NROrb=    676 NOA=   125 NOB=   123 NVA=   551 NVB=   553

 **** Warning!!: The largest alpha MO coefficient is  0.14130365D+03


 **** Warning!!: The largest beta MO coefficient is  0.13513204D+03

 Leave Link  801 at Sat Jun 15 10:15:39 2024, MaxMem= 30064771072 cpu:               4.0 elap:               0.1
 (Enter /work/home/achvfzi98e/apprepo/gaussian/16-hy/scripts/../app/g16/l1101.exe)
 <DELETED FOR SPACE>
 (Enter /work/home/achvfzi98e/apprepo/gaussian/16-hy/scripts/../app/g16/l401.exe)
 Initial guess from the checkpoint file:  "NiIILn2.chk"
 B after Tr=     0.000000   -0.000000   -0.000000
         Rot=    0.928838   -0.370483    0.001291   -0.001106 Ang= -43.49 deg.
 Guess basis will be translated and rotated to current coordinates.
 JPrj=2 DoOrth=T DoCkMO=T.
 Initial guess <Sx>= 0.0000 <Sy>= 0.0000 <Sz>= 1.0000 <S**2>= 2.0077 S= 1.0026
 Generating alternative initial guess.
 ExpMin= 1.39D-02 ExpMax= 7.14D+04 ExpMxC= 1.07D+04 IAcc=3 IRadAn=         5 AccDes= 0.00D+00
 Harris functional with IExCor=  402 and IRadAn=       5 diagonalized for initial guess.
 HarFok:  IExCor=  402 AccDes= 0.00D+00 IRadAn=         5 IDoV= 1 UseB2=F ITyADJ=14
 ICtDFT=  3500011 ScaDFX=  1.000000  1.000000  1.000000  1.000000
 FoFCou: FMM=F IPFlag=           0 FMFlag=      100000 FMFlg1=           0
         NFxFlg=           0 DoJE=T BraDBF=F KetDBF=T FulRan=T
         wScrn=  0.000000 ICntrl=       500 IOpCl=  0 I1Cent=   200000004 NGrid=           0
         NMat0=    1 NMatS0=      1 NMatT0=    0 NMatD0=    1 NMtDS0=    0 NMtDT0=    0
 Petite list used in FoFCou.
 Harris En= -3081.80002576191    
 Leave Link  401 at Sat Jun 15 11:03:41 2024, MaxMem= 30064771072 cpu:             228.2 elap:               3.6
 (Enter /work/home/achvfzi98e/apprepo/gaussian/16-hy/scripts/../app/g16/l502.exe)
 Integral symmetry usage will be decided dynamically.
 UHF open shell SCF:
 Using DIIS extrapolation, IDIIS=    10.
 NGot= 30064771072 LenX= 30063790530 LenY= 30063324724
 Requested convergence on RMS density matrix=1.00D-08 within 128 cycles.
 Requested convergence on MAX density matrix=1.00D-06.
 Requested convergence on             energy=1.00D-06.
 Virtual orbitals will be shifted by   0.500 hartree.
 No special actions if energy rises.
 Dynamic level shift is on during FON iterations.
 Fock matrices will be formed incrementally for  20 cycles.

 Cycle   1  Pass 1  IDiag  1:
 FoFJK:  IHMeth= 1 ICntrl=       0 DoSepK=F KAlg= 0 I1Cent=           0 FoldK=F
 IRaf= 850000000 NMat=       1 IRICut=       1 DoRegI=T DoRafI=F ISym2E= 0 IDoP0=0 IntGTp=1.
 FoFCou: FMM=F IPFlag=           0 FMFlag=      100000 FMFlg1=           0
         NFxFlg=           0 DoJE=F BraDBF=F KetDBF=F FulRan=T
         wScrn=  0.000000 ICntrl=         0 IOpCl=  1 I1Cent=           0 NGrid=           0
         NMat0=    1 NMatS0=      1 NMatT0=    0 NMatD0=    1 NMtDS0=    0 NMtDT0=    0
 Symmetry not used in FoFCou.
 Inv3:  Mode=1 IEnd=    24026700.
 Iteration    1 A*A^-1 deviation from unit magnitude is 3.44D-15 for   2146.
 Iteration    1 A*A^-1 deviation from orthogonality  is 2.14D-15 for   2649    507.
 Iteration    1 A^-1*A deviation from unit magnitude is 3.44D-15 for   2146.
 Iteration    1 A^-1*A deviation from orthogonality  is 2.00D-14 for   2133   2116.
 E= -3081.71923596768    
 DIIS: error= 5.61D-03 at cycle   1 NSaved=   1.
 NSaved= 1 IEnMin= 1 EnMin= -3081.71923596768     IErMin= 1 ErrMin= 5.61D-03
 ErrMax= 5.61D-03  0.00D+00 EMaxC= 1.00D+00 BMatC= 6.44D-02 BMatP= 6.44D-02
 IDIUse=1 WtCom= 1.00D+00 WtEn= 0.00D+00
 Coeff-Com:  0.100D+01
 Coeff:      0.100D+01
 Gap=     0.438 Goal=   None    Shift=    0.500
 T=  490. Gap= 0.631 NK=0 IS=  126 IE=  676 IFin=  125
          NO(<0.9)=   0  NV(>0.1)=   0    125.00e < EF      0.00e >EF  Err=0.0D+00
 Gap=     0.462 Goal=   None    Shift=    0.500
 T=  490. Gap= 0.651 NK=0 IS=  124 IE=  676 IFin=  123
          NO(<0.9)=   0  NV(>0.1)=   0    123.00e < EF      0.00e >EF  Err=0.0D+00
 GapD=    0.438 DampG=2.000 DampE=1.000 DampFc=2.0000 IDamp=-1.
 RMSDP=5.71D-04 MaxDP=4.74D-02              OVMax= 4.85D-03

 Cycle   2  Pass 1  IDiag  1:
 RMSU=  5.70D-04    CP:  1.00D+00
 E= -3081.72138627124     Delta-E=       -0.002150303569 Rises=F Damp=F
 DIIS: error= 2.73D-04 at cycle   2 NSaved=   2.
 NSaved= 2 IEnMin= 2 EnMin= -3081.72138627124     IErMin= 2 ErrMin= 2.73D-04
 ErrMax= 2.73D-04  0.00D+00 EMaxC= 1.00D+00 BMatC= 6.65D-04 BMatP= 6.44D-02
 IDIUse=1 WtCom= 1.00D+00 WtEn= 0.00D+00
 Coeff-Com: -0.187D-01 0.102D+01
 Coeff:     -0.187D-01 0.102D+01
 Gap=     0.131 Goal=   None    Shift=    0.500
 Gap=     0.151 Goal=   None    Shift=    0.500
 RMSDP=2.53D-04 MaxDP=1.83D-02 DE=-2.15D-03 OVMax= 2.26D-03

 Cycle   3  Pass 1  IDiag  1:
 RMSU=  1.12D-04    CP:  1.00D+00  1.40D+00
 E= -3081.72175659216     Delta-E=       -0.000370320920 Rises=F Damp=F
 DIIS: error= 1.56D-04 at cycle   3 NSaved=   3.
 NSaved= 3 IEnMin= 3 EnMin= -3081.72175659216     IErMin= 3 ErrMin= 1.56D-04
 ErrMax= 1.56D-04  0.00D+00 EMaxC= 1.00D+00 BMatC= 1.44D-04 BMatP= 6.65D-04
 IDIUse=1 WtCom= 1.00D+00 WtEn= 0.00D+00
 Coeff-Com:  0.467D-03-0.537D+00 0.154D+01
 Coeff:      0.467D-03-0.537D+00 0.154D+01
 Gap=     0.131 Goal=   None    Shift=    0.500
 Gap=     0.151 Goal=   None    Shift=    0.500
 RMSDP=1.15D-04 MaxDP=7.81D-03 DE=-3.70D-04 OVMax= 1.32D-03

 Cycle   4  Pass 1  IDiag  1:
 RMSU=  3.91D-05    CP:  1.00D+00  1.56D+00  1.50D+00
 E= -3081.72185302439     Delta-E=       -0.000096432229 Rises=F Damp=F
 DIIS: error= 9.00D-05 at cycle   4 NSaved=   4.
 NSaved= 4 IEnMin= 4 EnMin= -3081.72185302439     IErMin= 4 ErrMin= 9.00D-05
 ErrMax= 9.00D-05  0.00D+00 EMaxC= 1.00D+00 BMatC= 6.60D-05 BMatP= 1.44D-04
 IDIUse=1 WtCom= 1.00D+00 WtEn= 0.00D+00
 Coeff-Com:  0.234D-02-0.424D+00 0.719D+00 0.703D+00
 Coeff:      0.234D-02-0.424D+00 0.719D+00 0.703D+00
 Gap=     0.131 Goal=   None    Shift=    0.500
 Gap=     0.151 Goal=   None    Shift=    0.500
 RMSDP=5.76D-05 MaxDP=4.24D-03 DE=-9.64D-05 OVMax= 9.16D-04

 Cycle   5  Pass 1  IDiag  1:
 RMSU=  2.95D-05    CP:  1.00D+00  1.63D+00  1.76D+00  1.28D+00
 E= -3081.72188793208     Delta-E=       -0.000034907682 Rises=F Damp=F
 DIIS: error= 5.33D-05 at cycle   5 NSaved=   5.
 NSaved= 5 IEnMin= 5 EnMin= -3081.72188793208     IErMin= 5 ErrMin= 5.33D-05
 ErrMax= 5.33D-05  0.00D+00 EMaxC= 1.00D+00 BMatC= 1.38D-05 BMatP= 6.60D-05
 IDIUse=1 WtCom= 1.00D+00 WtEn= 0.00D+00
 Coeff-Com:  0.498D-03-0.645D-02-0.168D+00-0.222D+00 0.140D+01
 Coeff:      0.498D-03-0.645D-02-0.168D+00-0.222D+00 0.140D+01
 Gap=     0.131 Goal=   None    Shift=    0.500
 Gap=     0.151 Goal=   None    Shift=    0.500
 RMSDP=3.65D-05 MaxDP=3.90D-03 DE=-3.49D-05 OVMax= 6.74D-04

 Cycle   6  Pass 1  IDiag  1:
 RMSU=  2.02D-05    CP:  1.00D+00  1.66D+00  1.84D+00  1.70D+00  1.55D+00
 E= -3081.72189950515     Delta-E=       -0.000011573079 Rises=F Damp=F
 DIIS: error= 4.56D-05 at cycle   6 NSaved=   6.
 NSaved= 6 IEnMin= 6 EnMin= -3081.72189950515     IErMin= 6 ErrMin= 4.56D-05
 ErrMax= 4.56D-05  0.00D+00 EMaxC= 1.00D+00 BMatC= 1.00D-05 BMatP= 1.38D-05
 IDIUse=1 WtCom= 1.00D+00 WtEn= 0.00D+00
 Coeff-Com: -0.589D-03 0.174D+00-0.476D+00-0.483D+00 0.104D+01 0.749D+00
 Coeff:     -0.589D-03 0.174D+00-0.476D+00-0.483D+00 0.104D+01 0.749D+00
 Gap=     0.131 Goal=   None    Shift=    0.500
 Gap=     0.151 Goal=   None    Shift=    0.500
 RMSDP=2.51D-05 MaxDP=2.71D-03 DE=-1.16D-05 OVMax= 5.12D-04

 Cycle   7  Pass 1  IDiag  1:
 RMSU=  1.03D-05    CP:  1.00D+00  1.67D+00  1.85D+00  1.91D+00  2.24D+00
                    CP:  1.16D+00
 E= -3081.72190511888     Delta-E=       -0.000005613724 Rises=F Damp=F
 DIIS: error= 2.34D-05 at cycle   7 NSaved=   7.
 NSaved= 7 IEnMin= 7 EnMin= -3081.72190511888     IErMin= 7 ErrMin= 2.34D-05
 ErrMax= 2.34D-05  0.00D+00 EMaxC= 1.00D+00 BMatC= 2.34D-06 BMatP= 1.00D-05
 IDIUse=1 WtCom= 1.00D+00 WtEn= 0.00D+00
 Coeff-Com: -0.386D-03 0.896D-01-0.224D+00-0.118D+00 0.759D-01-0.102D+00
 Coeff-Com:  0.128D+01
 Coeff:     -0.386D-03 0.896D-01-0.224D+00-0.118D+00 0.759D-01-0.102D+00
 Coeff:      0.128D+01
 Gap=     0.131 Goal=   None    Shift=    0.500
 Gap=     0.151 Goal=   None    Shift=    0.500
 RMSDP=1.88D-05 MaxDP=2.27D-03 DE=-5.61D-06 OVMax= 3.80D-04

 Cycle   8  Pass 1  IDiag  1:
 RMSU=  5.12D-06    CP:  1.00D+00  1.67D+00  1.82D+00  2.13D+00  2.64D+00
                    CP:  1.47D+00  1.83D+00
 E= -3081.72190763283     Delta-E=       -0.000002513948 Rises=F Damp=F
 DIIS: error= 1.61D-05 at cycle   8 NSaved=   8.
 NSaved= 8 IEnMin= 8 EnMin= -3081.72190763283     IErMin= 8 ErrMin= 1.61D-05
 ErrMax= 1.61D-05  0.00D+00 EMaxC= 1.00D+00 BMatC= 1.08D-06 BMatP= 2.34D-06
 IDIUse=1 WtCom= 1.00D+00 WtEn= 0.00D+00
 Coeff-Com:  0.688D-04-0.314D-01 0.106D+00 0.215D+00-0.689D+00-0.477D+00
 Coeff-Com:  0.406D+00 0.147D+01
 Coeff:      0.688D-04-0.314D-01 0.106D+00 0.215D+00-0.689D+00-0.477D+00
 Coeff:      0.406D+00 0.147D+01
 Gap=     0.131 Goal=   None    Shift=    0.500
 Gap=     0.151 Goal=   None    Shift=    0.500
 RMSDP=1.55D-05 MaxDP=1.88D-03 DE=-2.51D-06 OVMax= 3.58D-04

 Cycle   9  Pass 1  IDiag  1:
 RMSU=  2.25D-06    CP:  1.00D+00  1.66D+00  1.79D+00  2.27D+00  2.94D+00
                    CP:  1.73D+00  2.60D+00  1.87D+00
 E= -3081.72190903930     Delta-E=       -0.000001406472 Rises=F Damp=F
 DIIS: error= 1.21D-05 at cycle   9 NSaved=   9.
 NSaved= 9 IEnMin= 9 EnMin= -3081.72190903930     IErMin= 9 ErrMin= 1.21D-05
 ErrMax= 1.21D-05  0.00D+00 EMaxC= 1.00D+00 BMatC= 5.70D-07 BMatP= 1.08D-06
 IDIUse=1 WtCom= 1.00D+00 WtEn= 0.00D+00
 Coeff-Com:  0.129D-03-0.391D-01 0.133D+00 0.834D-01-0.372D+00-0.135D+00
 Coeff-Com: -0.368D+00 0.181D+00 0.152D+01
 Coeff:      0.129D-03-0.391D-01 0.133D+00 0.834D-01-0.372D+00-0.135D+00
 Coeff:     -0.368D+00 0.181D+00 0.152D+01
 Gap=     0.131 Goal=   None    Shift=    0.500
 Gap=     0.151 Goal=   None    Shift=    0.500
 RMSDP=1.14D-05 MaxDP=1.37D-03 DE=-1.41D-06 OVMax= 3.30D-04

 Cycle  10  Pass 1  IDiag  1:
 RMSU=  5.09D-06    CP:  1.00D+00  1.66D+00  1.78D+00  2.35D+00  3.00D+00
                    CP:  1.98D+00  3.00D+00  2.39D+00  1.75D+00
 E= -3081.72190986683     Delta-E=       -0.000000827529 Rises=F Damp=F
 DIIS: error= 1.09D-05 at cycle  10 NSaved=  10.
 NSaved=10 IEnMin=10 EnMin= -3081.72190986683     IErMin=10 ErrMin= 1.09D-05
 ErrMax= 1.09D-05  0.00D+00 EMaxC= 1.00D+00 BMatC= 3.47D-07 BMatP= 5.70D-07
 IDIUse=1 WtCom= 1.00D+00 WtEn= 0.00D+00
 Coeff-Com:  0.552D-04-0.161D-01 0.643D-01-0.606D-01 0.632D-01 0.922D-01
 Coeff-Com: -0.513D+00-0.567D+00 0.252D+00 0.169D+01
 Coeff:      0.552D-04-0.161D-01 0.643D-01-0.606D-01 0.632D-01 0.922D-01
 Coeff:     -0.513D+00-0.567D+00 0.252D+00 0.169D+01
 Gap=     0.131 Goal=   None    Shift=    0.500
 Gap=     0.151 Goal=   None    Shift=    0.500
 RMSDP=8.52D-06 MaxDP=9.80D-04 DE=-8.28D-07 OVMax= 3.18D-04

 Cycle  11  Pass 1  IDiag  1:
 RMSU=  2.72D-06    CP:  1.00D+00  1.66D+00  1.76D+00  2.40D+00  3.00D+00
                    CP:  2.15D+00  3.00D+00  2.83D+00  2.40D+00  2.22D+00
 E= -3081.72191042278     Delta-E=       -0.000000555956 Rises=F Damp=F
 DIIS: error= 9.59D-06 at cycle  11 NSaved=  11.
 NSaved=11 IEnMin=11 EnMin= -3081.72191042278     IErMin=11 ErrMin= 9.59D-06
 ErrMax= 9.59D-06  0.00D+00 EMaxC= 1.00D+00 BMatC= 2.06D-07 BMatP= 3.47D-07
 IDIUse=1 WtCom= 1.00D+00 WtEn= 0.00D+00
 Coeff-Com: -0.123D-04 0.363D-02-0.134D-01-0.429D-01 0.190D+00 0.392D-01
 Coeff-Com: -0.142D+00-0.382D+00-0.720D+00-0.590D-01 0.213D+01
 Coeff:     -0.123D-04 0.363D-02-0.134D-01-0.429D-01 0.190D+00 0.392D-01
 Coeff:     -0.142D+00-0.382D+00-0.720D+00-0.590D-01 0.213D+01
 Gap=     0.131 Goal=   None    Shift=    0.500
 Gap=     0.151 Goal=   None    Shift=    0.500
 RMSDP=6.41D-06 MaxDP=6.68D-04 DE=-5.56D-07 OVMax= 3.23D-04

 Cycle  12  Pass 1  IDiag  1:
 RMSU=  1.55D-06    CP:  1.00D+00  1.66D+00  1.75D+00  2.43D+00  3.00D+00
                    CP:  2.27D+00  3.00D+00  3.00D+00  2.94D+00  3.00D+00
                    CP:  1.89D+00
 E= -3081.72191083164     Delta-E=       -0.000000408858 Rises=F Damp=F
 DIIS: error= 8.35D-06 at cycle  12 NSaved=  12.
 NSaved=12 IEnMin=12 EnMin= -3081.72191083164     IErMin=12 ErrMin= 8.35D-06
 ErrMax= 8.35D-06  0.00D+00 EMaxC= 1.00D+00 BMatC= 1.35D-07 BMatP= 2.06D-07
 IDIUse=1 WtCom= 1.00D+00 WtEn= 0.00D+00
 Coeff-Com: -0.295D-04 0.963D-02-0.426D-01 0.184D-02 0.142D+00-0.945D-02
 Coeff-Com:  0.871D-01-0.991D-01-0.849D+00-0.876D+00 0.137D+01 0.127D+01
 Coeff:     -0.295D-04 0.963D-02-0.426D-01 0.184D-02 0.142D+00-0.945D-02
 Coeff:      0.871D-01-0.991D-01-0.849D+00-0.876D+00 0.137D+01 0.127D+01
 Gap=     0.131 Goal=   None    Shift=    0.500
 Gap=     0.151 Goal=   None    Shift=    0.500
 RMSDP=4.86D-06 MaxDP=4.76D-04 DE=-4.09D-07 OVMax= 3.00D-04

 Cycle  13  Pass 1  IDiag  1:
 RMSU=  2.57D-06    CP:  1.00D+00  1.66D+00  1.75D+00  2.45D+00  3.00D+00
                    CP:  2.35D+00  3.00D+00  3.00D+00  3.00D+00  3.00D+00
                    CP:  2.63D+00  2.87D+00
 E= -3081.72191112229     Delta-E=       -0.000000290650 Rises=F Damp=F
 DIIS: error= 7.19D-06 at cycle  13 NSaved=  13.
 NSaved=13 IEnMin=13 EnMin= -3081.72191112229     IErMin=13 ErrMin= 7.19D-06
 ErrMax= 7.19D-06  0.00D+00 EMaxC= 1.00D+00 BMatC= 8.76D-08 BMatP= 1.35D-07
 IDIUse=1 WtCom= 1.00D+00 WtEn= 0.00D+00
 Coeff-Com: -0.171D-04 0.621D-02-0.291D-01 0.271D-01 0.498D-02 0.153D-03
 Coeff-Com:  0.131D+00 0.111D+00-0.312D+00-0.468D+00-0.527D+00-0.177D+00
 Coeff-Com:  0.223D+01
 Coeff:     -0.171D-04 0.621D-02-0.291D-01 0.271D-01 0.498D-02 0.153D-03
 Coeff:      0.131D+00 0.111D+00-0.312D+00-0.468D+00-0.527D+00-0.177D+00
 Coeff:      0.223D+01
 Gap=     0.131 Goal=   None    Shift=    0.500
 Gap=     0.151 Goal=   None    Shift=    0.500
 RMSDP=3.68D-06 MaxDP=3.31D-04 DE=-2.91D-07 OVMax= 2.97D-04

 Cycle  14  Pass 1  IDiag  1:
 RMSU=  2.31D-06    CP:  1.00D+00  1.66D+00  1.74D+00  2.47D+00  3.00D+00
                    CP:  2.41D+00  3.00D+00  3.00D+00  3.00D+00  3.00D+00
                    CP:  3.00D+00  3.00D+00  1.72D+00
 E= -3081.72191134250     Delta-E=       -0.000000220209 Rises=F Damp=F
 DIIS: error= 6.17D-06 at cycle  14 NSaved=  14.
 NSaved=14 IEnMin=14 EnMin= -3081.72191134250     IErMin=14 ErrMin= 6.17D-06
 ErrMax= 6.17D-06  0.00D+00 EMaxC= 1.00D+00 BMatC= 6.50D-08 BMatP= 8.76D-08
 IDIUse=1 WtCom= 1.00D+00 WtEn= 0.00D+00
 Coeff-Com: -0.376D-05 0.611D-03-0.552D-03 0.872D-02-0.516D-01 0.183D-01
 Coeff-Com:  0.552D-01 0.114D+00 0.953D-01 0.228D+00-0.114D+01-0.117D+01
 Coeff-Com:  0.115D+01 0.169D+01
 Coeff:     -0.376D-05 0.611D-03-0.552D-03 0.872D-02-0.516D-01 0.183D-01
 Coeff:      0.552D-01 0.114D+00 0.953D-01 0.228D+00-0.114D+01-0.117D+01
 Coeff:      0.115D+01 0.169D+01
 Gap=     0.131 Goal=   None    Shift=    0.500
 Gap=     0.151 Goal=   None    Shift=    0.500
 RMSDP=2.89D-06 MaxDP=2.21D-04 DE=-2.20D-07 OVMax= 2.69D-04

 Cycle  15  Pass 1  IDiag  1:
 RMSU=  8.33D-07    CP:  1.00D+00  1.66D+00  1.74D+00  2.48D+00  3.00D+00
                    CP:  2.44D+00  3.00D+00  3.00D+00  3.00D+00  3.00D+00
                    CP:  3.00D+00  3.00D+00  2.20D+00  1.98D+00
 E= -3081.72191149738     Delta-E=       -0.000000154883 Rises=F Damp=F
 DIIS: error= 5.17D-06 at cycle  15 NSaved=  15.
 NSaved=15 IEnMin=15 EnMin= -3081.72191149738     IErMin=15 ErrMin= 5.17D-06
 ErrMax= 5.17D-06  0.00D+00 EMaxC= 1.00D+00 BMatC= 4.69D-08 BMatP= 6.50D-08
 IDIUse=1 WtCom= 1.00D+00 WtEn= 0.00D+00
 Coeff-Com:  0.125D-04-0.561D-02 0.283D-01-0.190D-01-0.506D-01 0.134D-02
 Coeff-Com: -0.330D-01 0.472D-01 0.257D+00 0.608D+00-0.471D+00-0.122D+01
 Coeff-Com: -0.738D+00 0.129D+00 0.246D+01
 Coeff:      0.125D-04-0.561D-02 0.283D-01-0.190D-01-0.506D-01 0.134D-02
 Coeff:     -0.330D-01 0.472D-01 0.257D+00 0.608D+00-0.471D+00-0.122D+01
 Coeff:     -0.738D+00 0.129D+00 0.246D+01
 Gap=     0.131 Goal=   None    Shift=    0.500
 Gap=     0.151 Goal=   None    Shift=    0.500
 RMSDP=2.31D-06 MaxDP=1.53D-04 DE=-1.55D-07 OVMax= 2.56D-04

 Cycle  16  Pass 1  IDiag  1:
 RMSU=  5.44D-07    CP:  1.00D+00  1.66D+00  1.74D+00  2.49D+00  3.00D+00
                    CP:  2.47D+00  3.00D+00  3.00D+00  3.00D+00  3.00D+00
                    CP:  3.00D+00  3.00D+00  2.56D+00  2.78D+00  1.69D+00
 E= -3081.72191160883     Delta-E=       -0.000000111451 Rises=F Damp=F
 DIIS: error= 4.14D-06 at cycle  16 NSaved=  16.
 NSaved=16 IEnMin=16 EnMin= -3081.72191160883     IErMin=16 ErrMin= 4.14D-06
 ErrMax= 4.14D-06  0.00D+00 EMaxC= 1.00D+00 BMatC= 3.60D-08 BMatP= 4.69D-08
 IDIUse=1 WtCom= 1.00D+00 WtEn= 0.00D+00
 Coeff-Com:  0.163D-04-0.556D-02 0.235D-01-0.159D-01-0.694D-02-0.318D-01
 Coeff-Com: -0.351D-01-0.393D-02 0.263D-01 0.167D+00 0.797D+00-0.125D+00
 Coeff-Com: -0.121D+01-0.226D+01 0.157D+01 0.212D+01
 Coeff:      0.163D-04-0.556D-02 0.235D-01-0.159D-01-0.694D-02-0.318D-01
 Coeff:     -0.351D-01-0.393D-02 0.263D-01 0.167D+00 0.797D+00-0.125D+00
 Coeff:     -0.121D+01-0.226D+01 0.157D+01 0.212D+01
 Gap=     0.131 Goal=   None    Shift=    0.500
 Gap=     0.151 Goal=   None    Shift=    0.500
 RMSDP=1.86D-06 MaxDP=1.24D-04 DE=-1.11D-07 OVMax= 2.17D-04

 Cycle  17  Pass 1  IDiag  1:
 RMSU=  1.03D-06    CP:  1.00D+00  1.66D+00  1.74D+00  2.49D+00  3.00D+00
                    CP:  2.48D+00  3.00D+00  3.00D+00  3.00D+00  3.00D+00
                    CP:  3.00D+00  3.00D+00  2.84D+00  3.00D+00  2.35D+00
                    CP:  1.69D+00
 E= -3081.72191167974     Delta-E=       -0.000000070910 Rises=F Damp=F
 DIIS: error= 3.37D-06 at cycle  17 NSaved=  17.
 NSaved=17 IEnMin=17 EnMin= -3081.72191167974     IErMin=17 ErrMin= 3.37D-06
 ErrMax= 3.37D-06  0.00D+00 EMaxC= 1.00D+00 BMatC= 2.55D-08 BMatP= 3.60D-08
 IDIUse=1 WtCom= 1.00D+00 WtEn= 0.00D+00
 Coeff-Com:  0.766D-05-0.163D-02 0.337D-02-0.158D-02 0.273D-01-0.301D-01
 Coeff-Com: -0.906D-02-0.517D-01-0.195D+00-0.227D+00 0.127D+01 0.695D+00
 Coeff-Com: -0.584D+00-0.286D+01-0.104D+00 0.127D+01 0.180D+01
 Coeff:      0.766D-05-0.163D-02 0.337D-02-0.158D-02 0.273D-01-0.301D-01
 Coeff:     -0.906D-02-0.517D-01-0.195D+00-0.227D+00 0.127D+01 0.695D+00
 Coeff:     -0.584D+00-0.286D+01-0.104D+00 0.127D+01 0.180D+01
 Gap=     0.131 Goal=   None    Shift=    0.500
 Gap=     0.151 Goal=   None    Shift=    0.500
 RMSDP=1.51D-06 MaxDP=9.40D-05 DE=-7.09D-08 OVMax= 1.76D-04

 Cycle  18  Pass 1  IDiag  1:
 RMSU=  3.03D-07    CP:  1.00D+00  1.66D+00  1.74D+00  2.50D+00  3.00D+00
                    CP:  2.50D+00  3.00D+00  3.00D+00  3.00D+00  3.00D+00
                    CP:  3.00D+00  3.00D+00  3.00D+00  3.00D+00  2.93D+00
                    CP:  2.20D+00  2.21D+00
 E= -3081.72191172271     Delta-E=       -0.000000042969 Rises=F Damp=F
 DIIS: error= 2.64D-06 at cycle  18 NSaved=  18.
 NSaved=18 IEnMin=18 EnMin= -3081.72191172271     IErMin=18 ErrMin= 2.64D-06
 ErrMax= 2.64D-06  0.00D+00 EMaxC= 1.00D+00 BMatC= 1.66D-08 BMatP= 2.55D-08
 IDIUse=1 WtCom= 1.00D+00 WtEn= 0.00D+00
 Coeff-Com: -0.787D-05 0.306D-02-0.151D-01 0.921D-02 0.268D-01 0.973D-02
 Coeff-Com:  0.156D-01-0.690D-01-0.204D+00-0.147D+00 0.395D+00 0.505D+00
 Coeff-Com:  0.514D+00-0.708D+00-0.120D+01-0.905D+00 0.690D+00 0.209D+01
 Coeff:     -0.787D-05 0.306D-02-0.151D-01 0.921D-02 0.268D-01 0.973D-02
 Coeff:      0.156D-01-0.690D-01-0.204D+00-0.147D+00 0.395D+00 0.505D+00
 Coeff:      0.514D+00-0.708D+00-0.120D+01-0.905D+00 0.690D+00 0.209D+01
 Gap=     0.131 Goal=   None    Shift=    0.500
 Gap=     0.151 Goal=   None    Shift=    0.500
 RMSDP=1.19D-06 MaxDP=6.54D-05 DE=-4.30D-08 OVMax= 1.35D-04
[...]
 RMSU=  9.45D-09    CP:  1.00D+00  3.00D+00  3.00D+00  3.00D+00  3.00D+00
                    CP:  2.80D+00  1.89D+00
 E= -3081.72192667116     Delta-E=       -0.000000000007 Rises=F Damp=F
 DIIS: error= 6.56D-08 at cycle  28 NSaved=  20.
 NSaved=20 IEnMin=20 EnMin= -3081.72192667116     IErMin=20 ErrMin= 6.56D-08
 ErrMax= 6.56D-08  0.00D+00 EMaxC= 1.00D+00 BMatC= 5.51D-12 BMatP= 9.49D-12
 IDIUse=1 WtCom= 1.00D+00 WtEn= 0.00D+00
 Coeff-Com: -0.123D-02 0.101D-02 0.407D-02 0.182D-02 0.645D-02-0.365D-01
 Coeff-Com: -0.874D-02 0.129D-01 0.276D-01 0.457D-01-0.230D-01-0.352D-01
 Coeff-Com:  0.762D-04 0.931D-01 0.162D+00-0.283D-01-0.729D+00-0.106D+01
 Coeff-Com:  0.579D+00 0.199D+01
 Coeff:     -0.123D-02 0.101D-02 0.407D-02 0.182D-02 0.645D-02-0.365D-01
 Coeff:     -0.874D-02 0.129D-01 0.276D-01 0.457D-01-0.230D-01-0.352D-01
 Coeff:      0.762D-04 0.931D-01 0.162D+00-0.283D-01-0.729D+00-0.106D+01
 Coeff:      0.579D+00 0.199D+01
 Gap=     0.131 Goal=   None    Shift=    0.500
 Gap=     0.151 Goal=   None    Shift=    0.500
 RMSDP=3.47D-08 MaxDP=1.98D-06 DE=-7.28D-12 OVMax= 2.45D-06

 Cycle  29  Pass 1  IDiag  1:
 RMSU=  2.24D-08    CP:  1.00D+00  3.00D+00  3.00D+00  3.00D+00  3.00D+00
                    CP:  3.00D+00  2.65D+00  1.88D+00
 E= -3081.72192667119     Delta-E=       -0.000000000037 Rises=F Damp=F
 DIIS: error= 5.08D-08 at cycle  29 NSaved=  20.
 NSaved=20 IEnMin=20 EnMin= -3081.72192667119     IErMin=20 ErrMin= 5.08D-08
 ErrMax= 5.08D-08  0.00D+00 EMaxC= 1.00D+00 BMatC= 3.22D-12 BMatP= 5.51D-12
 IDIUse=1 WtCom= 1.00D+00 WtEn= 0.00D+00
 Coeff-Com:  0.667D-03-0.139D-02-0.136D-02 0.309D-02-0.133D-01 0.337D-01
 Coeff-Com: -0.120D-01-0.612D-02-0.285D-01-0.256D-01 0.912D-01 0.117D-02
 Coeff-Com: -0.791D-01-0.119D+00 0.322D+00 0.323D+00-0.737D+00-0.112D+01
 Coeff-Com:  0.188D+00 0.218D+01
 Coeff:      0.667D-03-0.139D-02-0.136D-02 0.309D-02-0.133D-01 0.337D-01
 Coeff:     -0.120D-01-0.612D-02-0.285D-01-0.256D-01 0.912D-01 0.117D-02
 Coeff:     -0.791D-01-0.119D+00 0.322D+00 0.323D+00-0.737D+00-0.112D+01
 Coeff:      0.188D+00 0.218D+01
 Gap=     0.131 Goal=   None    Shift=    0.500
 Gap=     0.151 Goal=   None    Shift=    0.500
 RMSDP=2.73D-08 MaxDP=1.62D-06 DE=-3.73D-11 OVMax= 1.77D-06

 Cycle  30  Pass 1  IDiag  1:
 RMSU=  3.55D-09    CP:  1.00D+00  3.00D+00  3.00D+00  3.00D+00  3.00D+00
                    CP:  3.00D+00  3.00D+00  2.63D+00  2.15D+00
 E= -3081.72192667117     Delta-E=        0.000000000027 Rises=F Damp=F
 DIIS: error= 3.96D-08 at cycle  30 NSaved=  20.
 NSaved=20 IEnMin=19 EnMin= -3081.72192667119     IErMin=20 ErrMin= 3.96D-08
 ErrMax= 3.96D-08  0.00D+00 EMaxC= 1.00D+00 BMatC= 1.95D-12 BMatP= 3.22D-12
 IDIUse=1 WtCom= 1.00D+00 WtEn= 0.00D+00
 Coeff-Com: -0.476D-02-0.259D-02-0.727D-02 0.331D-01 0.390D-01-0.217D-01
 Coeff-Com: -0.453D-01-0.607D-01 0.182D-01 0.134D+00-0.172D-01-0.188D+00
 Coeff-Com: -0.320D+00 0.219D+00 0.799D+00 0.382D+00-0.122D+01-0.183D+01
 Coeff-Com:  0.132D+01 0.178D+01
 Coeff:     -0.476D-02-0.259D-02-0.727D-02 0.331D-01 0.390D-01-0.217D-01
 Coeff:     -0.453D-01-0.607D-01 0.182D-01 0.134D+00-0.172D-01-0.188D+00
 Coeff:     -0.320D+00 0.219D+00 0.799D+00 0.382D+00-0.122D+01-0.183D+01
 Coeff:      0.132D+01 0.178D+01
 Gap=     0.131 Goal=   None    Shift=    0.500
 Gap=     0.151 Goal=   None    Shift=    0.500
 RMSDP=2.16D-08 MaxDP=1.30D-06 DE= 2.73D-11 OVMax= 1.30D-06

 Cycle  31  Pass 1  IDiag  1:
 RMSU=  3.84D-09    CP:  1.00D+00  3.00D+00  3.00D+00  3.00D+00  3.00D+00
                    CP:  3.00D+00  3.00D+00  3.00D+00  3.00D+00  2.13D+00
 E= -3081.72192667118     Delta-E=       -0.000000000010 Rises=F Damp=F
 DIIS: error= 3.01D-08 at cycle  31 NSaved=  20.
 NSaved=20 IEnMin=18 EnMin= -3081.72192667119     IErMin=20 ErrMin= 3.01D-08
 ErrMax= 3.01D-08  0.00D+00 EMaxC= 1.00D+00 BMatC= 1.11D-12 BMatP= 1.95D-12
 IDIUse=1 WtCom= 1.00D+00 WtEn= 0.00D+00
 Coeff-Com: -0.226D-02-0.668D-02 0.269D-01-0.571D-02-0.962D-03-0.191D-01
 Coeff-Com: -0.513D-02 0.253D-01 0.241D-01-0.418D-01-0.919D-01-0.127D+00
 Coeff-Com:  0.197D-01 0.306D+00 0.555D+00-0.271D+00-0.140D+01-0.178D+00
 Coeff-Com:  0.600D+00 0.159D+01
 Coeff:     -0.226D-02-0.668D-02 0.269D-01-0.571D-02-0.962D-03-0.191D-01
 Coeff:     -0.513D-02 0.253D-01 0.241D-01-0.418D-01-0.919D-01-0.127D+00
 Coeff:      0.197D-01 0.306D+00 0.555D+00-0.271D+00-0.140D+01-0.178D+00
 Coeff:      0.600D+00 0.159D+01
 Gap=     0.131 Goal=   None    Shift=    0.500
 Gap=     0.151 Goal=   None    Shift=    0.500
 RMSDP=1.70D-08 MaxDP=1.03D-06 DE=-1.00D-11 OVMax= 9.97D-07

 Cycle  32  Pass 1  IDiag  1:
 RMSU=  1.39D-08    CP:  1.00D+00  3.00D+00  3.00D+00  3.00D+00  3.00D+00
                    CP:  3.00D+00  3.00D+00  3.00D+00  3.00D+00  3.00D+00
                    CP:  3.00D+00
 E= -3081.72192667120     Delta-E=       -0.000000000028 Rises=F Damp=F
 DIIS: error= 2.34D-08 at cycle  32 NSaved=  20.
 NSaved=20 IEnMin=20 EnMin= -3081.72192667120     IErMin=20 ErrMin= 2.34D-08
 ErrMax= 2.34D-08  0.00D+00 EMaxC= 1.00D+00 BMatC= 6.58D-13 BMatP= 1.11D-12
 IDIUse=1 WtCom= 1.00D+00 WtEn= 0.00D+00
 Coeff-Com: -0.879D-02 0.201D-01-0.171D-01 0.125D-01-0.352D-02 0.108D-01
 Coeff-Com:  0.134D-01-0.260D-01-0.194D-01-0.517D-02-0.180D-01-0.119D+00
 Coeff-Com: -0.374D-01 0.458D+00 0.238D+00-0.622D+00-0.782D+00-0.117D+00
 Coeff-Com:  0.790D+00 0.123D+01
 Coeff:     -0.879D-02 0.201D-01-0.171D-01 0.125D-01-0.352D-02 0.108D-01
 Coeff:      0.134D-01-0.260D-01-0.194D-01-0.517D-02-0.180D-01-0.119D+00
 Coeff:     -0.374D-01 0.458D+00 0.238D+00-0.622D+00-0.782D+00-0.117D+00
 Coeff:      0.790D+00 0.123D+01
 Gap=     0.131 Goal=   None    Shift=    0.500
 Gap=     0.151 Goal=   None    Shift=    0.500
 RMSDP=1.31D-08 MaxDP=8.15D-07 DE=-2.82D-11 OVMax= 6.73D-07

 Cycle  33  Pass 1  IDiag  1:
 RMSU=  6.41D-09    CP:  1.00D+00  3.00D+00  3.00D+00  3.00D+00  3.00D+00
                    CP:  3.00D+00  3.00D+00  3.00D+00  3.00D+00  3.00D+00
                    CP:  3.00D+00  1.82D+00
 E= -3081.72192667121     Delta-E=       -0.000000000006 Rises=F Damp=F
 DIIS: error= 1.76D-08 at cycle  33 NSaved=  20.
 NSaved=20 IEnMin=20 EnMin= -3081.72192667121     IErMin=20 ErrMin= 1.76D-08
 ErrMax= 1.76D-08  0.00D+00 EMaxC= 1.00D+00 BMatC= 3.68D-13 BMatP= 6.58D-13
 IDIUse=1 WtCom= 1.00D+00 WtEn= 0.00D+00
 Coeff-Com:  0.165D-02-0.196D-01 0.142D-01 0.114D-01 0.239D-01-0.370D-02
 Coeff-Com: -0.561D-01-0.791D-03 0.620D-01 0.706D-01-0.129D+00-0.252D+00
 Coeff-Com:  0.140D+00 0.433D+00 0.176D+00-0.848D+00-0.499D+00 0.919D-01
 Coeff-Com:  0.518D+00 0.127D+01
 Coeff:      0.165D-02-0.196D-01 0.142D-01 0.114D-01 0.239D-01-0.370D-02
 Coeff:     -0.561D-01-0.791D-03 0.620D-01 0.706D-01-0.129D+00-0.252D+00
 Coeff:      0.140D+00 0.433D+00 0.176D+00-0.848D+00-0.499D+00 0.919D-01
 Coeff:      0.518D+00 0.127D+01
 Gap=     0.131 Goal=   None    Shift=    0.500
 Gap=     0.151 Goal=   None    Shift=    0.500
 RMSDP=1.01D-08 MaxDP=6.14D-07 DE=-6.37D-12 OVMax= 4.35D-07

 Cycle  34  Pass 1  IDiag  1:
 RMSU=  9.39D-10    CP:  1.00D+00  3.00D+00  3.00D+00  3.00D+00  3.00D+00
                    CP:  3.00D+00  3.00D+00  3.00D+00  3.00D+00  3.00D+00
                    CP:  3.00D+00  2.45D+00  1.80D+00
 E= -3081.72192667119     Delta-E=        0.000000000024 Rises=F Damp=F
 DIIS: error= 1.31D-08 at cycle  34 NSaved=  20.
 NSaved=20 IEnMin=19 EnMin= -3081.72192667121     IErMin=20 ErrMin= 1.31D-08
 ErrMax= 1.31D-08  0.00D+00 EMaxC= 1.00D+00 BMatC= 2.01D-13 BMatP= 3.68D-13
 IDIUse=1 WtCom= 1.00D+00 WtEn= 0.00D+00
 Coeff-Com: -0.956D-02 0.647D-02 0.590D-02 0.126D-01 0.321D-02-0.108D-01
 Coeff-Com: -0.511D-02 0.855D-02-0.947D-02-0.441D-01-0.777D-01 0.650D-01
 Coeff-Com:  0.174D+00 0.129D+00-0.328D+00-0.208D+00-0.306D+00-0.128D+00
 Coeff-Com:  0.283D+00 0.144D+01
 Coeff:     -0.956D-02 0.647D-02 0.590D-02 0.126D-01 0.321D-02-0.108D-01
 Coeff:     -0.511D-02 0.855D-02-0.947D-02-0.441D-01-0.777D-01 0.650D-01
 Coeff:      0.174D+00 0.129D+00-0.328D+00-0.208D+00-0.306D+00-0.128D+00
 Coeff:      0.283D+00 0.144D+01
 Gap=     0.131 Goal=   None    Shift=    0.500
 Gap=     0.151 Goal=   None    Shift=    0.500
 RMSDP=7.89D-09 MaxDP=4.98D-07 DE= 2.36D-11 OVMax= 3.34D-07

 Error on total polarization charges =  0.03827
 SCF Done:  E(UB3LYP) =  -3081.72192667     A.U. after   34 cycles
            NFock= 34  Conv=0.79D-08     -V/T= 2.0056
 <Sx>= 0.0000 <Sy>= 0.0000 <Sz>= 1.0000 <S**2>= 2.0078 S= 1.0026
 <L.S>=  0.00000000000    
 KE= 3.064474803021D+03 PE=-1.613684625552D+04 EE= 5.621319787280D+03
 Annihilation of the first spin contaminant:
 S**2 before annihilation     2.0078,   after     2.0000
 Leave Link  502 at Sun Jun 16 03:35:37 2024, MaxMem= 30064771072 cpu:           24287.0 elap:             383.4
 (Enter /work/home/achvfzi98e/apprepo/gaussian/16-hy/scripts/../app/g16/l801.exe)
 DoSCS=F DFT=T ScalE2(SS,OS)=  1.000000  1.000000
 Range of M.O.s used for correlation:     1   676
 NBasis=   679 NAE=   125 NBE=   123 NFC=     0 NFV=     0
 NROrb=    676 NOA=   125 NOB=   123 NVA=   551 NVB=   553

 **** Warning!!: The largest alpha MO coefficient is  0.15465346D+03


 **** Warning!!: The largest beta MO coefficient is  0.16210853D+03

 Leave Link  801 at Sun Jun 16 03:35:38 2024, MaxMem= 30064771072 cpu:               4.0 elap:               0.1
 (Enter /work/home/achvfzi98e/apprepo/gaussian/16-hy/scripts/../app/g16/l1101.exe)
 Using compressed storage, NAtomX=    43.
 Will process     44 centers per pass.
 R6Disp: Adding Grimme-D3(BJ) dispersion energy 1st derivatives to the gradient.
 Leave Link 1101 at Sun Jun 16 03:35:39 2024, MaxMem= 30064771072 cpu:             100.0 elap:               1.6
 (Enter /work/home/achvfzi98e/apprepo/gaussian/16-hy/scripts/../app/g16/l1102.exe)
 Symmetrizing basis deriv contribution to polar:
 IMax=3 JMax=2 DiffMx= 0.00D+00
 Leave Link 1102 at Sun Jun 16 03:35:40 2024, MaxMem= 30064771072 cpu:              10.5 elap:               0.2
 (Enter /work/home/achvfzi98e/apprepo/gaussian/16-hy/scripts/../app/g16/l1110.exe)
 Forming Gx(P) for the SCF density, NAtomX=    43.
 Integral derivatives from FoFJK, PRISM(SPDF).
 Do as many integral derivatives as possible in FoFJK.
 G2DrvN: MDV=   30064767668.
 G2DrvN: will do    44 centers at a time, making    1 passes.
 Calling FoFCou, ICntrl=  3107 FMM=F I1Cent=   0 AccDes= 0.00D+00.
 FoFJK:  IHMeth= 1 ICntrl=    3107 DoSepK=F KAlg= 0 I1Cent=           0 FoldK=F
 IRaf=         0 NMat=       1 IRICut=       1 DoRegI=T DoRafI=F ISym2E= 0 IDoP0=0 IntGTp=1.
 FoFCou: FMM=F IPFlag=           0 FMFlag=      100000 FMFlg1=           0
         NFxFlg=           0 DoJE=F BraDBF=F KetDBF=F FulRan=T
         wScrn=  0.000000 ICntrl=      3107 IOpCl=  1 I1Cent=           0 NGrid=           0
         NMat0=    1 NMatS0=      1 NMatT0=    0 NMatD0=    1 NMtDS0=    0 NMtDT0=    0
 Symmetry not used in FoFCou.
 NEqPCM:  Using equilibrium solvation (IEInf=0, Eps=  78.3553, EpsInf=   1.7778)
 G2PCM: DoFxE=T DoFxN=T DoGrad=T DoDP/DQ/DG/TGxP=FFFF NFrqRd=   0 IEInf=0 SqF1=F DoCFld=F IF1Alg=4.
 GePol: Maximum number of non-zero 1st derivatives   =     202
 End of G2Drv F.D. properties file   721 does not exist.
 End of G2Drv F.D. properties file   722 does not exist.
 End of G2Drv F.D. properties file   788 does not exist.
 Leave Link 1110 at Sun Jun 16 03:41:32 2024, MaxMem= 30064771072 cpu:           22451.0 elap:             351.9
 (Enter /work/home/achvfzi98e/apprepo/gaussian/16-hy/scripts/../app/g16/l1002.exe)
 Minotr:  UHF open shell wavefunction.
          IDoAtm=1111111111111111111111111111111111111111111
 NEqPCM:  Using equilibrium solvation (IEInf=0, Eps=  78.3553, EpsInf=   1.7778)
          Direct CPHF calculation.
          Differentiating once with respect to electric field.
                with respect to dipole field.
          Differentiating once with respect to nuclear coordinates.
          Requested convergence is 1.0D-08 RMS, and 1.0D-07 maximum.
          Secondary convergence is 1.0D-12 RMS, and 1.0D-12 maximum.
          NewPWx=T KeepS1=F KeepF1=F KeepIn=T MapXYZ=F SortEE=F KeepMc=T.
        13431 words used for storage of precomputed grid.
 Two-electron integrals replicated using symmetry.
          MDV=   30064771072 using IRadAn=       1.
          Solving linear equations simultaneously, MaxMat=     384.
 FoF2E skips out because all densities are zero.
 CalDSu exits because no D1Ps are significant.
 FoFJK:  IHMeth= 1 ICntrl=       0 DoSepK=F KAlg= 0 I1Cent=           0 FoldK=F
 IRaf= 830000000 NMat=     129 IRICut=     322 DoRegI=T DoRafI=T ISym2E= 2 IDoP0=3 IntGTp=2.
          There are   132 degrees of freedom in the 1st order CPHF.  IDoFFX=6 NUNeed=     3.
    129 vectors produced by pass  0 Test12= 1.37D-13 1.00D-09 XBig12= 6.22D+02 5.33D+00.
 AX will form   129 AO Fock derivatives at one time.
    129 vectors produced by pass  1 Test12= 1.37D-13 1.00D-09 XBig12= 1.92D+02 1.19D+00.
    129 vectors produced by pass  2 Test12= 1.37D-13 1.00D-09 XBig12= 3.62D+00 1.85D-01.
    129 vectors produced by pass  3 Test12= 1.37D-13 1.00D-09 XBig12= 1.17D-01 3.64D-02.
    129 vectors produced by pass  4 Test12= 1.37D-13 1.00D-09 XBig12= 9.24D-04 2.57D-03.
    129 vectors produced by pass  5 Test12= 1.37D-13 1.00D-09 XBig12= 5.37D-06 1.95D-04.
    129 vectors produced by pass  6 Test12= 1.37D-13 1.00D-09 XBig12= 4.02D-08 1.41D-05.
     57 vectors produced by pass  7 Test12= 1.37D-13 1.00D-09 XBig12= 2.29D-10 9.81D-07.
      3 vectors produced by pass  8 Test12= 1.37D-13 1.00D-09 XBig12= 1.05D-12 5.50D-08.
      3 vectors produced by pass  9 Test12= 1.37D-13 1.00D-09 XBig12= 2.03D-14 1.49D-08.
      3 vectors produced by pass 10 Test12= 1.37D-13 1.00D-09 XBig12= 4.65D-14 1.36D-08.
      3 vectors produced by pass 11 Test12= 1.37D-13 1.00D-09 XBig12= 6.99D-15 5.14D-09.
      3 vectors produced by pass 12 Test12= 1.37D-13 1.00D-09 XBig12= 7.32D-14 1.64D-08.
      3 vectors produced by pass 13 Test12= 1.37D-13 1.00D-09 XBig12= 7.00D-15 5.32D-09.
      3 vectors produced by pass 14 Test12= 1.37D-13 1.00D-09 XBig12= 2.38D-14 9.16D-09.
      3 vectors produced by pass 15 Test12= 1.37D-13 1.00D-09 XBig12= 7.35D-14 2.19D-08.
      3 vectors produced by pass 16 Test12= 1.37D-13 1.00D-09 XBig12= 2.08D-14 1.05D-08.
      3 vectors produced by pass 17 Test12= 1.37D-13 1.00D-09 XBig12= 1.25D-14 8.25D-09.
      3 vectors produced by pass 18 Test12= 1.37D-13 1.00D-09 XBig12= 3.92D-14 1.38D-08.
      3 vectors produced by pass 19 Test12= 1.37D-13 1.00D-09 XBig12= 1.80D-13 2.67D-08.
      3 vectors produced by pass 20 Test12= 1.37D-13 1.00D-09 XBig12= 3.90D-14 9.32D-09.
      3 vectors produced by pass 21 Test12= 1.37D-13 1.00D-09 XBig12= 8.82D-14 1.49D-08.
      3 vectors produced by pass 22 Test12= 1.37D-13 1.00D-09 XBig12= 3.24D-14 9.89D-09.
      3 vectors produced by pass 23 Test12= 1.37D-13 1.00D-09 XBig12= 1.08D-13 1.53D-08.
      3 vectors produced by pass 24 Test12= 1.37D-13 1.00D-09 XBig12= 2.94D-14 8.45D-09.
      3 vectors produced by pass 25 Test12= 1.37D-13 1.00D-09 XBig12= 8.07D-14 1.67D-08.
      3 vectors produced by pass 26 Test12= 1.37D-13 1.00D-09 XBig12= 2.94D-14 7.97D-09.
      3 vectors produced by pass 27 Test12= 1.37D-13 1.00D-09 XBig12= 8.00D-14 1.29D-08.
      3 vectors produced by pass 28 Test12= 1.37D-13 1.00D-09 XBig12= 3.76D-14 8.26D-09.
      3 vectors produced by pass 29 Test12= 1.37D-13 1.00D-09 XBig12= 1.12D-13 1.52D-08.
      3 vectors produced by pass 30 Test12= 1.37D-13 1.00D-09 XBig12= 2.97D-14 7.69D-09.
      3 vectors produced by pass 31 Test12= 1.37D-13 1.00D-09 XBig12= 4.25D-14 9.69D-09.
      3 vectors produced by pass 32 Test12= 1.37D-13 1.00D-09 XBig12= 5.29D-14 1.06D-08.
      3 vectors produced by pass 33 Test12= 1.37D-13 1.00D-09 XBig12= 4.26D-14 1.16D-08.
      3 vectors produced by pass 34 Test12= 1.37D-13 1.00D-09 XBig12= 2.73D-14 7.48D-09.
      3 vectors produced by pass 35 Test12= 1.37D-13 1.00D-09 XBig12= 8.98D-14 1.60D-08.
      3 vectors produced by pass 36 Test12= 1.37D-13 1.00D-09 XBig12= 2.14D-14 6.77D-09.
      3 vectors produced by pass 37 Test12= 1.37D-13 1.00D-09 XBig12= 8.50D-14 1.65D-08.
      3 vectors produced by pass 38 Test12= 1.37D-13 1.00D-09 XBig12= 4.38D-14 9.32D-09.
      3 vectors produced by pass 39 Test12= 1.37D-13 1.00D-09 XBig12= 4.09D-14 1.09D-08.
      3 vectors produced by pass 40 Test12= 1.37D-13 1.00D-09 XBig12= 2.45D-14 7.31D-09.
      3 vectors produced by pass 41 Test12= 1.37D-13 1.00D-09 XBig12= 5.48D-14 9.97D-09.
      3 vectors produced by pass 42 Test12= 1.37D-13 1.00D-09 XBig12= 7.41D-15 3.39D-09.
      3 vectors produced by pass 43 Test12= 1.37D-13 1.00D-09 XBig12= 1.26D-13 1.85D-08.
      3 vectors produced by pass 44 Test12= 1.37D-13 1.00D-09 XBig12= 1.74D-14 6.08D-09.
      3 vectors produced by pass 45 Test12= 1.37D-13 1.00D-09 XBig12= 1.13D-13 1.48D-08.
      2 vectors produced by pass 46 Test12= 1.37D-13 1.00D-09 XBig12= 9.04D-15 4.21D-09.
 InvSVY:  IOpt=1 It=  1 EMax= 1.42D-14
 Solved reduced A of dimension  1076 with   132 vectors.
 FullF1:  Do perturbations      1 to       3.
 Isotropic polarizability for W=    0.000000      440.99 Bohr**3.
 End of Minotr F.D. properties file   721 does not exist.
 End of Minotr F.D. properties file   722 does not exist.
 End of Minotr F.D. properties file   788 does not exist.
 Leave Link 1002 at Sun Jun 16 04:20:26 2024, MaxMem= 30064771072 cpu:          148868.5 elap:            2333.7
 (Enter /work/home/achvfzi98e/apprepo/gaussian/16-hy/scripts/../app/g16/l701.exe)
 ... and contract with generalized density number  0.
 Compute integral second derivatives.
 R6Disp: Adding Grimme-D3(BJ) dispersion energy 2nd derivatives to the Hessian.
 D2PCM: PCM CHGder 2nd derivatives, FixD1E=F FixD2E=F DoIter=F DoCFld=F I1PDM=0
 GePol: Maximum number of non-zero 2nd derivatives   =     202
 Leave Link  701 at Sun Jun 16 04:20:37 2024, MaxMem= 30064771072 cpu:             676.0 elap:              10.7
 <DELETED FOR SPACE>
   D170      -0.92559  -0.00001   0.00000  -0.00022  -0.00022  -0.92581
   D171      -2.97684  -0.00003   0.00000  -0.00055  -0.00055  -2.97739
   D172      -0.88390   0.00001   0.00000  -0.00092  -0.00092  -0.88482
   D173      -3.03290  -0.00001   0.00000  -0.00121  -0.00121  -3.03411
   D174       1.19903  -0.00004   0.00000  -0.00154  -0.00154   1.19749
   D175      -1.23875  -0.00003   0.00000  -0.00148  -0.00148  -1.24022
   D176       0.90491  -0.00002   0.00000  -0.00146  -0.00146   0.90345
   D177       2.96388  -0.00001   0.00000  -0.00132  -0.00132   2.96257
   D178       0.88374  -0.00003   0.00000  -0.00052  -0.00052   0.88323
   D179       3.02740  -0.00001   0.00000  -0.00050  -0.00050   3.02690
   D180      -1.19681  -0.00000   0.00000  -0.00036  -0.00036  -1.19717
   D181       0.76044  -0.00016   0.00000  -0.00513  -0.00513   0.75531
   D182      -2.36071  -0.00011   0.00000  -0.00589  -0.00589  -2.36659
   D183      -2.36505  -0.00003   0.00000  -0.00306  -0.00305  -2.36810
   D184       0.79698   0.00002   0.00000  -0.00381  -0.00381   0.79317
   D185       0.78051  -0.00016   0.00000  -0.00629  -0.00628   0.77424
   D186      -2.34573   0.00001   0.00000  -0.00368  -0.00367  -2.34940
   D187      -2.33861  -0.00017   0.00000  -0.00813  -0.00812  -2.34673
   D188       0.81833  -0.00000   0.00000  -0.00552  -0.00552   0.81282
   D189       0.76845  -0.00005   0.00000  -0.00333  -0.00333   0.76512
   D190      -2.35436   0.00001   0.00000  -0.00234  -0.00234  -2.35670
   D191      -2.35328  -0.00009   0.00000  -0.00432  -0.00432  -2.35761
   D192       0.80709  -0.00002   0.00000  -0.00333  -0.00333   0.80376
         Item               Value     Threshold  Converged?
 Maximum Force            0.000613     0.000450     NO 
 RMS     Force            0.000110     0.000300     YES
 Maximum Displacement     0.046823     0.001800     NO 
 RMS     Displacement     0.004949     0.001200     NO 
 Predicted change in Energy=-3.539892D-05
 GradGradGradGradGradGradGradGradGradGradGradGradGradGradGradGradGradGrad

 Leave Link  103 at Sun Jun 16 04:28:23 2024, MaxMem= 30064771072 
 <DELETED FOR SPACE>